/*--------------------------------*- C++ -*----------------------------------*\
  =========                 |
  \\      /  F ield         | OpenFOAM: The Open Source CFD Toolbox
   \\    /   O peration     | Website:  https://openfoam.org
    \\  /    A nd           | Version:  11
     \\/     M anipulation  |
\*---------------------------------------------------------------------------*/
FoamFile
{
    format      ascii;
    class       volScalarField;
    location    "400";
    object      p;
}
// * * * * * * * * * * * * * * * * * * * * * * * * * * * * * * * * * * * * * //

dimensions      [0 2 -2 0 0 0 0];

internalField   nonuniform List<scalar> 
11040
(
376.433
356.385
309.006
237.106
153.077
46.2039
-61.2406
-135.96
-127.903
-118.571
-147.088
-204.916
-338.823
-506.962
-652.741
-665.293
-592.27
-386.143
-254.326
-206.475
-180.501
-156.099
-135.736
-120.369
-109.184
-102.768
-90.3762
-67.7571
-53.6369
-43.2733
-33.0269
-22.898
-13.2363
-3.90188
5.36625
14.7559
24.3759
34.6127
45.2871
58.4036
69.2469
369.266
349.806
307.422
244.871
169.674
77.3117
-16.9716
-86.1374
-103.709
-109.233
-141.363
-199.484
-317.439
-463.092
-590.191
-613.337
-566.673
-394.976
-264.97
-211.509
-183.036
-157.991
-137.199
-121.435
-109.789
-102.652
-90.4668
-68.856
-54.5204
-43.9471
-33.6427
-23.4775
-13.7761
-4.41076
4.8739
14.27
23.883
34.1056
44.6942
57.8416
68.0975
357.144
339.06
301.271
245.896
177.542
95.3673
9.53074
-59.6784
-94.0766
-109.018
-139.791
-194.757
-296.777
-423.958
-539.671
-574.046
-542.773
-401.563
-273.327
-214.057
-184.162
-159.163
-138.15
-122.05
-109.97
-102.124
-90.3544
-69.8873
-55.1398
-44.3373
-34.0339
-23.864
-14.1386
-4.75838
4.52697
13.9151
23.5056
33.69
44.1685
57.2105
66.8313
341.42
324.659
291.107
242.757
182.259
110.429
34.0699
-31.8265
-76.1494
-100.376
-132.601
-185.85
-274.637
-384.395
-488.243
-532.091
-516.654
-403.111
-281.373
-217.431
-185.684
-160.581
-139.289
-122.785
-110.232
-101.577
-90.1197
-70.9225
-55.8944
-44.8611
-34.5595
-24.3869
-14.6361
-5.24245
4.03742
13.4059
22.9554
33.0674
43.3932
56.1568
65.1404
322.389
306.916
277.501
235.939
183.522
121.593
54.754
-5.98325
-55.7902
-89.3573
-124.253
-175.274
-251.678
-344.432
-434.885
-483.401
-483.472
-399.438
-289.538
-222.056
-187.567
-162.155
-140.618
-123.642
-110.547
-100.983
-89.7153
-71.9633
-56.8625
-45.543
-35.214
-25.0512
-15.284
-5.88462
3.37482
12.6989
22.1723
32.1505
42.2488
54.5072
62.824
300.413
286.235
260.776
225.543
181.019
128.473
70.9518
16.3641
-34.6563
-75.0513
-112.735
-161.37
-226.952
-304.404
-381.735
-431.988
-445.149
-389.901
-295.982
-227.155
-189.578
-163.716
-142.059
-124.603
-110.924
-100.424
-89.1955
-72.9347
-57.9964
-46.3764
-35.998
-25.8695
-16.1056
-6.71505
2.50187
11.7469
21.0966
30.8625
40.6428
52.1591
59.87
276.072
263.186
241.409
211.914
174.755
130.867
82.2122
34.3335
-14.4026
-58.2017
-98.1387
-144.503
-200.897
-265.106
-330.176
-379.452
-402.328
-372.875
-298.54
-232.042
-191.751
-165.195
-143.508
-125.624
-111.345
-99.9613
-88.6352
-73.7558
-59.2351
-47.3825
-36.9359
-26.8638
-17.1351
-7.77887
1.36417
10.4839
19.6479
29.1062
38.4661
49.0291
56.2222
250.066
238.448
220.007
195.59
165.038
128.926
88.4753
47.4495
3.34353
-40.3595
-81.078
-125.032
-173.741
-226.913
-281.085
-327.066
-355.764
-347.578
-295.025
-235.4
-193.803
-166.424
-144.784
-126.618
-111.783
-99.6231
-88.1015
-74.3723
-60.4811
-48.5396
-38.0271
-28.0328
-18.3853
-9.10465
-0.0782685
8.85806
17.7616
26.8087
35.6444
45.1143
51.828
223.164
212.767
197.277
177.252
152.427
123.098
90.0024
55.6134
17.3747
-23.3357
-62.7932
-103.835
-146.109
-190.315
-235.23
-276.51
-307.403
-314.745
-283.646
-235.21
-194.923
-167.076
-145.602
-127.399
-112.155
-99.3778
-87.6299
-74.7781
-61.638
-49.8003
-39.2658
-29.3697
-19.8537
-10.7038
-1.84929
6.83658
15.3991
23.9403
32.1627
40.5078
46.702
196.143
186.901
173.972
157.666
137.668
114.1
87.4005
59.1535
27.1259
-8.71063
-44.9245
-82.2468
-118.933
-155.896
-193.165
-229.186
-259.464
-276.317
-263.685
-229.299
-193.744
-166.578
-145.557
-127.646
-112.268
-99.1028
-87.1858
-74.9827
-62.6229
-51.0907
-40.6353
-30.8756
-21.5474
-12.5966
-3.97984
4.3873
12.5339
20.4992
28.0472
35.339
40.9404
169.741
161.58
150.838
137.628
121.613
102.828
81.5392
58.7448
32.651
2.51497
-29.0511
-61.8228
-93.3644
-124.339
-155.294
-186.067
-213.909
-235.047
-236.049
-216.138
-188.491
-163.944
-144.052
-126.892
-111.797
-98.5731
-86.6458
-74.9618
-63.351
-52.297
-42.0751
-32.5322
-23.4645
-14.7956
-6.4945
1.48348
9.14776
16.4942
23.3422
29.7098
34.6955
144.615
137.458
128.568
117.902
105.124
90.2396
73.4212
55.2944
34.4961
10.0533
-16.2471
-43.936
-70.5387
-96.3449
-121.969
-147.796
-172.255
-193.911
-203.205
-195.677
-177.632
-157.86
-140.235
-124.49
-110.238
-97.4129
-85.7574
-74.6062
-63.7226
-53.279
-43.4683
-34.267
-25.5564
-17.2665
-9.37369
-1.86167
5.26193
11.9712
18.1319
23.7153
28.1418
121.302
115.078
107.747
99.1566
88.9865
77.2439
64.0506
49.8008
33.5019
14.2215
-6.89265
-29.4342
-51.2942
-72.4795
-93.4728
-114.764
-135.5
-155.425
-168.431
-169.631
-160.777
-147.212
-133.138
-119.655
-106.928
-95.0773
-84.1069
-73.6653
-63.5678
-53.8558
-44.6372
-35.9376
-27.7095
-19.91
-12.525
-5.55506
0.981478
7.05278
12.564
17.4875
21.4512
100.183
94.8257
88.808
81.9103
73.8346
64.6036
54.312
43.2098
30.5992
15.7059
-0.757648
-18.5205
-35.9805
-53.0055
-69.9099
-87.1117
-104.153
-121.279
-134.824
-140.907
-139.142
-131.833
-122.135
-111.701
-101.183
-90.9269
-81.1434
-71.7283
-62.5924
-53.7679
-45.3272
-37.3105
-29.7156
-22.5309
-15.7561
-9.40175
-3.48976
1.95105
6.85864
11.2188
14.8023
81.4769
76.9243
72.0159
66.4978
60.1041
52.8735
44.884
36.2959
26.6326
15.3043
2.74743
-10.8808
-24.4545
-37.8099
-51.1298
-64.7179
-78.3136
-92.3205
-104.613
-112.538
-115.131
-112.855
-107.47
-100.442
-92.604
-84.4488
-76.3278
-68.3117
-60.4008
-52.6717
-45.2084
-38.0648
-31.2671
-24.83
-18.7683
-13.0997
-7.84635
-3.03109
1.30835
5.16834
8.41591
65.3293
61.5168
57.5394
53.1386
48.0887
42.4406
36.2597
29.6488
22.2914
13.7644
4.33676
-5.90754
-16.2168
-26.4489
-36.7049
-47.1852
-57.7309
-68.7392
-79
-86.8401
-91.3882
-92.3328
-90.3733
-86.4801
-81.3658
-75.5279
-69.3624
-63.0364
-56.6059
-50.191
-43.9033
-37.8163
-31.9766
-26.4187
-21.1708
-16.2574
-11.7006
-7.51902
-3.73542
-0.348879
2.56724
51.8159
48.6741
45.4783
41.9797
38.0007
33.6001
28.8305
23.7576
18.1754
11.7955
4.78562
-2.81071
-10.507
-18.1971
-25.935
-33.8446
-41.8284
-50.2079
-58.3047
-65.106
-69.9974
-72.4936
-72.7227
-71.1997
-68.3981
-64.7083
-60.4848
-55.9185
-51.082
-46.11
-41.1301
-36.2298
-31.4687
-26.8935
-22.5418
-18.4435
-14.6217
-11.0934
-7.87432
-4.96378
-2.40154
41.225
38.6239
36.0609
33.2609
30.096
26.6319
22.9093
18.9715
14.6831
9.85141
4.58513
-1.09296
-6.86667
-12.6613
-18.5044
-24.4672
-30.4811
-36.7811
-42.9868
-48.4867
-52.8849
-55.7568
-57.0173
-56.9033
-55.6818
-53.6108
-50.9615
-47.9023
-44.4955
-40.8632
-37.1272
-33.3756
-29.6713
-26.0646
-22.5966
-19.2992
-16.1965
-13.306
-10.6409
-8.20368
-6.01704
33.1744
31.0001
28.9206
26.6455
24.0866
21.312
18.3527
15.2384
11.8782
8.14199
4.10431
-0.221526
-4.62401
-9.05065
-13.5151
-18.0588
-22.6335
-27.4022
-32.1408
-36.4723
-40.1459
-42.8395
-44.4204
-44.9897
-44.685
-43.6621
-42.1115
-40.1646
-37.8658
-35.313
-32.6091
-29.832
-27.0396
-24.2794
-21.5907
-19.0046
-16.5448
-14.2283
-12.0677
-10.0681
-8.24486
27.0008
25.1735
23.4679
21.5963
19.4998
17.2447
14.8548
12.3509
9.67117
6.72693
3.57138
0.213609
-3.20086
-6.6345
-10.0935
-13.6014
-17.1224
-20.7691
-24.4041
-27.7866
-30.7561
-33.0789
-34.6332
-35.4602
-35.6282
-35.2272
-34.3862
-33.2014
-31.7004
-29.9561
-28.0496
-26.0443
-23.9891
-21.925
-19.8863
-17.901
-15.9904
-14.1706
-12.4535
-10.8458
-9.3588
22.1896
20.648
19.2361
17.6806
15.9446
14.0898
12.1349
10.095
7.9277
5.57188
3.06699
0.420099
-2.26611
-4.96422
-7.67642
-10.4156
-13.1549
-15.9716
-18.7778
-21.4156
-23.7805
-25.7047
-27.0916
-27.9577
-28.3367
-28.2806
-27.8751
-27.1885
-26.2367
-25.0719
-23.7551
-22.3353
-20.8513
-19.3361
-17.8183
-16.3213
-14.8634
-13.4589
-12.1186
-10.8496
-9.66078
18.3908
17.0865
15.9087
14.6055
13.1556
11.6155
9.99997
8.32017
6.54699
4.63824
2.62386
0.509913
-1.62962
-3.77425
-5.92398
-8.08544
-10.2379
-12.4347
-14.6171
-16.679
-18.5509
-20.1127
-21.2921
-22.0964
-22.5426
-22.6613
-22.5098
-22.1362
-21.5492
-20.7856
-19.8901
-18.8991
-17.8424
-16.7456
-15.6313
-14.5183
-13.4217
-12.3536
-11.3232
-10.3373
-9.4032
15.3571
14.251
13.2621
12.1629
10.9433
9.65419
8.30743
6.91176
5.44713
3.88442
2.24686
0.539895
-1.18218
-2.90377
-4.6237
-6.34493
-8.05129
-9.7795
-11.4893
-13.1077
-14.5877
-15.8426
-16.8203
-17.5248
-17.9652
-18.1605
-18.1495
-17.9663
-17.6157
-17.1235
-16.5217
-15.8374
-15.0925
-14.3066
-13.497
-12.6783
-11.8626
-11.0597
-10.2772
-9.52112
-8.79759
12.9111
11.9711
11.136
10.2035
9.17142
8.08508
6.9542
5.78582
4.56633
3.27566
1.93219
0.540889
-0.857779
-2.25174
-3.63924
-5.02111
-6.38463
-7.75514
-9.10423
-10.3808
-11.5526
-12.5568
-13.3562
-13.9538
-14.3554
-14.5732
-14.6344
-14.5632
-14.3624
-14.0502
-13.6497
-13.1806
-12.6591
-12.0997
-11.5156
-10.9178
-10.3159
-9.71747
-9.12867
-8.55448
-8.00024
10.9222
10.1219
9.41319
8.61819
7.74015
6.81924
5.86362
4.87916
3.85678
2.78279
1.67192
0.528764
-0.616144
-1.75331
-2.88077
-3.99815
-5.0954
-6.19005
-7.26163
-8.27386
-9.20433
-10.007
-10.6559
-11.1539
-11.505
-11.7176
-11.8111
-11.8033
-11.6958
-11.5016
-11.2375
-10.9177
-10.5543
-10.1579
-9.73835
-9.30411
-8.86232
-8.41894
-7.97885
-7.54599
-7.12502
9.29302
8.61062
8.00646
7.32569
6.57522
5.79047
4.97847
4.14427
3.282
2.38251
1.45773
0.51188
-0.43172
-1.36554
-2.28758
-3.19685
-4.08541
-4.96539
-5.82181
-6.62863
-7.37011
-8.01243
-8.53752
-8.94828
-9.24778
-9.44235
-9.54606
-9.57198
-9.52144
-9.40382
-9.23134
-9.01447
-8.76196
-8.48179
-8.18123
-7.86665
-7.54345
-7.2162
-6.8887
-6.56402
-6.24619
7.94992
7.36727
6.85007
6.26481
5.62064
4.94878
4.25539
3.54493
2.81385
2.05619
1.28174
0.494342
-0.288027
-1.05933
-1.81767
-2.56179
-3.2854
-3.99692
-4.68528
-5.3316
-5.9248
-6.4399
-6.86449
-7.20145
-7.45337
-7.62514
-7.72722
-7.76943
-7.75289
-7.68453
-7.57334
-7.42703
-7.25207
-7.05439
-6.8394
-6.61187
-6.37589
-6.13493
-5.89192
-5.6492
-5.41027
6.83631
6.33826
5.89379
5.38879
4.83372
4.25602
3.66122
3.05337
2.43057
1.78913
1.13713
0.478071
-0.174088
-0.81448
-1.44136
-2.05341
-2.64567
-3.224
-3.78016
-4.3004
-4.77692
-5.19116
-5.53477
-5.81052
-6.02067
-6.16913
-6.26382
-6.31222
-6.31534
-6.27838
-6.20803
-6.11002
-5.98918
-5.84992
-5.69629
-5.53186
-5.35973
-5.18253
-5.00252
-4.82145
-4.64235
5.90832
5.48217
5.09881
4.66157
4.18151
3.68275
3.17038
2.64813
2.11525
1.56968
1.01814
0.463801
-0.0824326
-0.616619
-1.1372
-1.64293
-2.12989
-2.60221
-3.0537
-3.47437
-3.8587
-4.19291
-4.47148
-4.69702
-4.87154
-4.99823
-5.08318
-5.13213
-5.14606
-5.12892
-5.08572
-5.02077
-4.9377
-4.83982
-4.73018
-4.61146
-4.48601
-4.35581
-4.22264
-4.08776
-3.9538
5.13157
4.76665
4.43482
4.05499
3.63833
3.20607
2.76295
2.31244
1.85464
1.38862
0.920029
0.451681
-0.00783706
-0.45533
-0.889445
-1.30906
-1.71111
-2.09852
-2.46668
-2.80828
-3.1195
-3.39006
-3.61645
-3.80108
-3.94572
-4.05302
-4.12772
-4.17429
-4.19363
-4.1888
-4.1636
-4.12129
-4.06462
-3.99609
-3.91801
-3.83242
-3.74109
-3.64553
-3.54711
-3.44676
-3.34675
4.47887
4.16616
3.87796
3.54691
3.18402
2.80798
2.42326
2.03315
1.63833
1.23866
0.838905
0.441571
0.0534373
-0.322905
-0.686306
-1.0358
-1.36902
-1.68806
-1.98949
-2.26802
-2.52101
-2.74083
-2.92534
-3.07673
-3.19657
-3.28708
-3.35199
-3.39478
-3.41632
-3.41897
-3.40565
-3.37885
-3.34067
-3.29302
-3.23764
-3.17611
-3.10975
-3.03974
-2.96714
-2.8926
-2.81808
3.92854
3.66042
3.40925
3.11977
2.8026
2.47423
2.13894
1.79986
1.45807
1.11398
0.771619
0.433213
0.104129
-0.21354
-0.518838
-0.810969
-1.08813
-1.35184
-1.59959
-1.82757
-2.03401
-2.21325
-2.3641
-2.48853
-2.58792
-2.66414
-2.72014
-2.75867
-2.78053
-2.78757
-2.78204
-2.76587
-2.74067
-2.7079
-2.66891
-2.62488
-2.57686
-2.52572
-2.4723
-2.41707
-2.3617
3.46319
3.23319
3.01352
2.75951
2.48131
2.19347
1.90013
1.60429
1.3073
1.00993
0.71562
0.426319
0.146285
-0.122799
-0.38016
-0.625169
-0.856473
-1.07522
-1.2796
-1.4669
-1.63598
-1.78267
-1.90642
-2.00899
-2.09158
-2.15576
-2.2039
-2.23818
-2.25931
-2.26877
-2.26831
-2.25941
-2.24334
-2.22121
-2.19407
-2.16283
-2.12829
-2.09114
-2.05201
-2.01125
-1.97028
3.06875
2.87137
2.67854
2.45486
2.2099
1.95659
1.69892
1.4398
1.18076
0.922796
0.668839
0.420603
0.181462
-0.0472469
-0.264916
-0.471076
-0.66474
-0.846811
-1.01601
-1.17044
-1.30945
-1.42995
-1.53184
-1.61666
-1.68547
-1.73959
-1.78091
-1.81119
-1.83106
-1.84171
-1.84448
-1.84056
-1.8309
-1.81641
-1.79786
-1.77599
-1.7514
-1.72462
-1.69616
-1.66626
-1.63613
2.73381
2.56433
2.39441
2.19665
1.9801
1.75622
1.52894
1.30106
1.07422
0.849562
0.629594
0.415802
0.210856
0.0158041
-0.168899
-0.342932
-0.505604
-0.657655
-0.798223
-0.92602
-1.04072
-1.14009
-1.22431
-1.29471
-1.35222
-1.39797
-1.43347
-1.46013
-1.4785
-1.48956
-1.49435
-1.4938
-1.48867
-1.47964
-1.46736
-1.45235
-1.43512
-1.41607
-1.3956
-1.37386
-1.35191
2.44905
2.30344
2.15307
1.97746
1.78515
1.58637
1.38499
1.18372
0.984248
0.787794
0.596512
0.41168
0.235399
0.0684717
-0.0887835
-0.236178
-0.373262
-0.500672
-0.617867
-0.724014
-0.819029
-0.901307
-0.971202
-1.02987
-1.07813
-1.11692
-1.14746
-1.17091
-1.18774
-1.19874
-1.20473
-1.20644
-1.20448
-1.19939
-1.19165
-1.1817
-1.16992
-1.15662
-1.14213
-1.12655
-1.11077
2.20685
2.08163
1.94792
1.79122
1.61957
1.44218
1.26284
1.08422
0.908028
0.735488
0.568456
0.408016
0.25581
0.112432
-0.0219227
-0.147184
-0.263097
-0.370236
-0.468302
-0.556806
-0.635831
-0.704247
-0.762513
-0.811629
-0.852295
-0.885313
-0.91168
-0.932318
-0.947657
-0.958317
-0.964969
-0.968182
-0.968436
-0.966159
-0.961737
-0.955508
-0.947771
-0.938773
-0.928775
-0.917831
-0.906723
2.00093
1.8931
1.77357
1.63295
1.47886
1.31965
1.15905
0.999688
0.84326
0.690992
0.544469
0.404597
0.272639
0.149009
0.033789
-0.0730536
-0.17142
-0.261849
-0.34423
-0.418322
-0.48433
-0.541481
-0.590282
-0.631596
-0.666029
-0.694258
-0.717098
-0.735299
-0.749232
-0.759403
-0.766345
-0.770513
-0.772288
-0.772012
-0.769987
-0.766483
-0.761735
-0.755936
-0.749297
-0.741845
-0.734255
1.82612
1.73303
1.62549
1.49847
1.35926
1.21545
1.07075
0.927726
0.788061
0.65295
0.523754
0.401219
0.286293
0.179233
0.080019
-0.0114762
-0.0952825
-0.171917
-0.241413
-0.303715
-0.359107
-0.407084
-0.448172
-0.483111
-0.512425
-0.536688
-0.556567
-0.572673
-0.585329
-0.594947
-0.601952
-0.60671
-0.609525
-0.610669
-0.610383
-0.608881
-0.60635
-0.602941
-0.598828
-0.594013
-0.589086
1.67821
1.59752
1.49999
1.3843
1.25752
1.12666
0.995393
0.86622
0.740778
0.620199
0.50564
0.397705
0.297091
0.20392
0.118087
0.0393809
-0.0323337
-0.0975657
-0.15646
-0.209096
-0.255809
-0.296293
-0.331069
-0.360772
-0.385853
-0.406803
-0.424169
-0.438451
-0.449929
-0.458941
-0.465829
-0.470886
-0.474358
-0.476462
-0.477393
-0.477319
-0.47639
-0.474726
-0.472468
-0.469606
-0.466652
1.55378
1.48347
1.39425
1.28785
1.17124
1.051
0.930843
0.813247
0.699792
0.591515
0.489359
0.393771
0.305217
0.223703
0.149053
0.0809933
0.0193082
-0.0365051
-0.0866761
-0.131384
-0.170999
-0.205366
-0.234989
-0.260411
-0.282023
-0.300242
-0.315519
-0.328265
-0.338719
-0.34716
-0.353865
-0.359069
-0.362972
-0.365749
-0.367554
-0.368526
-0.368783
-0.368421
-0.367557
-0.366171
-0.364708
1.44992
1.38827
1.306
1.20727
1.09896
0.987303
0.876085
0.767826
0.664118
0.565958
0.474119
0.388889
0.310507
0.238838
0.173605
0.114467
0.0611373
0.0131234
-0.0298567
-0.0680432
-0.101819
-0.131137
-0.156476
-0.178305
-0.196967
-0.212821
-0.226243
-0.237576
-0.247027
-0.254828
-0.261204
-0.266346
-0.270417
-0.273557
-0.275894
-0.277535
-0.278579
-0.279101
-0.279197
-0.278844
-0.278425
1.36418
1.30928
1.23237
1.13976
1.03831
0.933894
0.830197
0.72968
0.633909
0.543866
0.460252
0.3833
0.313123
0.249496
0.192055
0.140364
0.094039
0.0525525
0.0155542
-0.0172558
-0.0462675
-0.071514
-0.0934357
-0.112425
-0.128774
-0.142786
-0.154771
-0.165011
-0.173684
-0.180983
-0.187093
-0.192171
-0.196351
-0.199749
-0.202469
-0.204599
-0.206222
-0.207397
-0.208207
-0.208628
-0.208983
1.29476
1.24425
1.17014
1.08101
0.984178
0.885386
0.788193
0.694798
0.60648
0.523968
0.44773
0.377883
0.314453
0.257219
0.205852
0.159948
0.119125
0.0828737
0.0508024
0.0225554
-0.00228351
-0.0238421
-0.042557
-0.0587882
-0.0728098
-0.0848946
-0.095309
-0.104291
-0.111995
-0.118581
-0.124199
-0.128975
-0.133016
-0.136415
-0.139255
-0.141606
-0.143533
-0.145084
-0.146324
-0.147233
-0.148071
1.24069
1.19327
1.12029
1.0319
0.936215
0.839437
0.745498
0.656698
0.574194
0.498428
0.429472
0.367056
0.31084
0.260352
0.215108
0.17464
0.138552
0.106406
0.0778693
0.0526447
0.0303883
0.0109716
-0.00596275
-0.0207022
-0.0334802
-0.0445338
-0.0540934
-0.0623663
-0.0694998
-0.0756394
-0.0809195
-0.0854539
-0.0893399
-0.092661
-0.0954908
-0.0978925
-0.0999217
-0.101623
-0.103048
-0.104193
-0.105239
1.20116
1.15846
1.08953
1.00404
0.909829
0.813315
0.719015
0.629859
0.547546
0.472888
0.406126
0.347023
0.295116
0.249749
0.210197
0.175731
0.145691
0.119434
0.096445
0.0763008
0.0586093
0.043161
0.0296054
0.0176939
0.00723504
-0.00195249
-0.0100376
-0.0171667
-0.0234444
-0.0289701
-0.0338379
-0.0381263
-0.0419048
-0.0452322
-0.0481626
-0.0507414
-0.0530099
-0.0550026
-0.0567552
-0.0582764
-0.0596601
1.17502
1.13622
1.07253
0.993479
0.906021
0.815602
0.726121
0.640215
0.559549
0.485105
0.417366
0.356422
0.302131
0.254157
0.212062
0.175344
0.1435
0.115996
0.092336
0.0720469
0.0546645
0.0398418
0.0271919
0.0164158
0.0072471
-0.000560361
-0.00722159
-0.0129165
-0.017787
-0.0219553
-0.0255292
-0.028594
-0.031224
-0.0334775
-0.0354069
-0.0370537
-0.0384535
-0.0396379
-0.0406281
-0.0414574
-0.0421055
1.16119
1.11218
1.03449
0.944627
0.852478
0.763697
0.681081
0.605706
0.537722
0.476806
0.422438
0.374004
0.330894
0.292524
0.258362
0.227926
0.200794
0.176592
0.155016
0.135812
0.11874
0.103587
0.0900823
0.0780586
0.0673777
0.0578987
0.0494864
0.0420206
0.0354002
0.0295308
0.024327
0.019711
0.0156165
0.0119823
0.00875657
0.00589164
0.00334824
0.00108638
-0.000910951
-0.00272173
-0.00416798
103.121
71.1461
53.5134
50.2842
45.8881
40.1485
35.4658
31.7522
28.4666
25.5076
22.8914
20.5784
18.5168
16.6719
15.0193
13.5366
12.2043
11.0056
9.92606
8.95311
8.07571
7.28406
6.56954
5.92445
5.34194
4.81588
4.34078
3.91171
3.52424
3.17437
2.8585
2.57338
2.31607
2.08392
1.87451
1.68569
1.51547
1.36208
1.2239
1.09945
0.987425
0.886606
0.795907
0.714338
0.641003
0.575089
0.515859
0.462648
0.414849
0.371915
0.333352
0.298709
0.26758
0.239598
0.214429
0.191771
0.171353
0.152926
0.136265
0.121168
0.107449
0.0949387
0.0834791
0.0729318
0.063137
0.0540158
0.04527
0.0371735
0.0283266
0.0217948
0.0075294
0.0116607
-0.0486932
0.0711662
100.055
71.1721
53.6408
50.1909
45.8416
40.1248
35.4424
31.7341
28.4537
25.4975
22.8832
20.5719
18.5115
16.6677
15.0158
13.5337
12.202
11.0037
9.92446
8.9518
8.07462
7.28317
6.56881
5.92385
5.34145
4.81548
4.34046
3.91145
3.52403
3.1742
2.85837
2.57328
2.31599
2.08386
1.87447
1.68566
1.51546
1.36207
1.2239
1.09946
0.987435
0.88662
0.795923
0.714356
0.641022
0.575109
0.51588
0.462669
0.41487
0.371937
0.333374
0.29873
0.267601
0.239618
0.214449
0.19179
0.171372
0.152944
0.136283
0.121185
0.107464
0.0949537
0.0834935
0.0729454
0.06315
0.0540281
0.045282
0.0371846
0.0283395
0.0218031
0.00755749
0.0116448
-0.0484788
0.070889
95.6851
71.103
53.6992
49.9214
45.7156
40.0668
35.3877
31.6913
28.4233
25.474
22.8644
20.5569
18.4996
16.6581
15.008
13.5274
12.1968
10.9995
9.92102
8.94899
8.07233
7.28131
6.56729
5.92262
5.34046
4.81469
4.33983
3.91095
3.52364
3.1739
2.85814
2.57311
2.31587
2.08378
1.87442
1.68564
1.51545
1.36209
1.22392
1.0995
0.987478
0.886669
0.795976
0.714412
0.64108
0.575168
0.515939
0.462727
0.414928
0.371994
0.333429
0.298784
0.267653
0.239668
0.214497
0.191837
0.171416
0.152986
0.136323
0.121223
0.107501
0.0949887
0.0835267
0.0729769
0.06318
0.0540565
0.0453096
0.0372101
0.0283685
0.0218227
0.00761748
0.0116167
-0.0480257
0.0703064
90.2894
70.4453
53.6334
49.4637
45.4621
39.9462
35.2835
31.6091
28.3655
25.4306
22.8301
20.53
18.4785
16.6413
14.9946
13.5167
12.1882
10.9925
9.91545
8.94451
8.06874
7.27843
6.565
5.9208
5.33902
4.81356
4.33895
3.91029
3.52314
3.17354
2.85788
2.57294
2.31577
2.08373
1.87442
1.68567
1.51551
1.36217
1.22402
1.0996
0.98759
0.886786
0.796096
0.714533
0.6412
0.575286
0.516056
0.462841
0.415038
0.3721
0.333532
0.298883
0.267748
0.239759
0.214584
0.19192
0.171495
0.153061
0.136394
0.121291
0.107565
0.0950491
0.0835838
0.0730309
0.0632312
0.0541048
0.0453564
0.0372533
0.028417
0.0218568
0.00771457
0.0115791
-0.0473016
0.069374
83.9942
68.9231
53.3791
48.7798
45.0026
39.7158
35.1014
31.4631
28.2615
25.3535
22.7702
20.4835
18.4424
16.6131
14.9723
13.4991
12.1743
10.9815
9.90669
8.93757
8.06325
7.2741
6.5616
5.91815
5.33697
4.81199
4.33776
3.9094
3.52251
3.1731
2.8576
2.57278
2.31571
2.08374
1.87449
1.68578
1.51566
1.36234
1.2242
1.0998
0.987794
0.886992
0.796302
0.714737
0.641401
0.575483
0.516246
0.463025
0.415215
0.37227
0.333694
0.299038
0.267896
0.2399
0.214718
0.192047
0.171615
0.153175
0.136502
0.121392
0.107661
0.0951391
0.0836687
0.0731108
0.0633068
0.054176
0.0454251
0.0373168
0.0284878
0.0219073
0.0078538
0.0115325
-0.0462699
0.0680355
76.9875
66.3483
52.7614
47.8113
44.2497
39.3085
34.8008
31.219
28.0825
25.221
22.6674
20.4035
18.3805
16.5647
14.9344
13.4692
12.1507
10.9629
9.89205
8.92602
8.05416
7.26696
6.55601
5.9138
5.33361
4.80942
4.33582
3.90796
3.52146
3.17236
2.85712
2.57249
2.31557
2.08372
1.87456
1.68592
1.51585
1.36257
1.22446
1.10007
0.988076
0.887279
0.79659
0.715021
0.64168
0.575754
0.516509
0.463278
0.415459
0.372503
0.333916
0.29925
0.268097
0.24009
0.214898
0.192217
0.171776
0.153327
0.136644
0.121526
0.107787
0.095258
0.0837804
0.0732159
0.0634059
0.0542691
0.045515
0.0373997
0.0285803
0.0219735
0.00803727
0.0114755
-0.0448985
0.0662312
69.4846
62.625
51.5426
46.4921
43.1249
38.6385
34.3278
30.8351
27.7914
25.0029
22.4977
20.2701
18.2759
16.4825
14.8693
13.4177
12.1098
10.9305
9.86626
8.90554
8.03791
7.25409
6.54584
5.90579
5.32733
4.80452
4.33203
3.90505
3.51926
3.17073
2.85593
2.57165
2.31502
2.08339
1.8744
1.6859
1.51593
1.36272
1.22467
1.10032
0.988356
0.887577
0.796899
0.715335
0.641993
0.576064
0.516812
0.463573
0.415744
0.372777
0.334179
0.2995
0.268335
0.240317
0.215112
0.19242
0.171968
0.153507
0.136814
0.121686
0.107937
0.0953982
0.083912
0.0733393
0.0635221
0.0543783
0.0456203
0.0374967
0.0286898
0.0220507
0.00826344
0.011404
-0.0431645
0.0639073
61.7616
57.8292
49.4954
44.7299
41.5632
37.61
33.6117
30.2617
27.3445
24.6626
22.2313
20.0582
18.1076
16.3484
14.7619
13.3314
12.0405
10.8747
9.82136
8.8694
8.00883
7.23072
6.52708
5.89075
5.3153
4.79492
4.32441
3.89902
3.51451
3.16702
2.85306
2.56946
2.31336
2.08217
1.87352
1.68529
1.51554
1.3625
1.22458
1.10034
0.988453
0.887733
0.797097
0.715564
0.642243
0.576327
0.517082
0.463845
0.416013
0.373042
0.334437
0.29975
0.268576
0.240547
0.215332
0.192629
0.172165
0.153694
0.13699
0.121851
0.108092
0.0955445
0.0840494
0.0734682
0.0636437
0.0544923
0.0457309
0.0375983
0.0288082
0.022131
0.00852759
0.0113125
-0.0410592
0.061028
54.0859
52.1898
46.4748
42.4034
39.5137
36.1335
32.5672
29.4384
26.691
24.1561
21.8325
19.7387
17.8509
16.1417
14.5946
13.1955
11.9299
10.7845
9.7478
8.80936
7.95981
7.19072
6.49445
5.86416
5.29366
4.77734
4.31014
3.88748
3.50519
3.15952
2.84704
2.56465
2.30954
2.07915
1.87116
1.68346
1.51413
1.36144
1.2238
1.09978
0.988069
0.88749
0.796966
0.71552
0.642266
0.576401
0.517194
0.463985
0.416174
0.373216
0.334619
0.299936
0.268762
0.240731
0.215512
0.192804
0.172334
0.153855
0.137144
0.121998
0.108231
0.0956756
0.084173
0.0735848
0.0637543
0.0545967
0.0458337
0.0376926
0.0289249
0.0222048
0.00882296
0.0111947
-0.0385921
0.0575888
46.6
45.9916
42.4715
39.3912
36.9255
34.1374
31.1015
28.2919
25.7719
23.4309
21.2578
19.2761
17.4764
15.8379
14.347
12.9929
11.7636
10.6478
9.63518
8.71648
7.88316
7.12742
6.44218
5.82101
5.25805
4.74797
4.28594
3.86756
3.48882
3.14608
2.83602
2.55564
2.30219
2.07316
1.8663
1.67952
1.51096
1.35889
1.22177
1.09817
0.9868
0.886501
0.796204
0.714942
0.641837
0.576091
0.51698
0.463848
0.416097
0.373186
0.334626
0.299971
0.268819
0.240803
0.215595
0.192894
0.172428
0.153951
0.13724
0.122093
0.108324
0.095766
0.0842605
0.073669
0.0638361
0.0546752
0.0459142
0.0377669
0.0290289
0.0222625
0.00914236
0.011046
-0.0357944
0.0536267
39.2861
39.4664
37.6067
35.6192
33.7412
31.5672
29.127
26.7377
24.5178
22.4256
20.4531
18.6255
16.9469
15.4059
13.9934
12.7022
11.524
10.4498
9.47124
8.58048
7.77019
7.03348
6.36401
5.75592
5.20384
4.70282
4.24835
3.83626
3.46278
3.12442
2.81803
2.54071
2.2898
2.0629
1.85781
1.67251
1.50517
1.35413
1.21785
1.09495
0.984169
0.884353
0.794455
0.713523
0.64069
0.575169
0.516243
0.463261
0.415634
0.372825
0.334347
0.299759
0.268661
0.240689
0.215516
0.192842
0.172398
0.153939
0.137241
0.122104
0.108343
0.0957905
0.0842895
0.0737014
0.063872
0.0547131
0.0459596
0.0378099
0.0291108
0.0222962
0.00947946
0.0108643
-0.0327188
0.049224
32.0649
32.7612
32.0811
31.105
29.92
28.3888
26.5779
24.6924
22.8524
21.0707
19.3552
17.7318
16.2154
14.8059
13.5001
12.2954
11.1876
10.171
9.23977
8.38793
7.60975
6.89962
6.2522
5.66243
5.12561
4.63733
4.19349
3.7903
3.42426
3.09215
2.79099
2.51806
2.27084
2.04703
1.84453
1.66141
1.4959
1.34638
1.21139
1.08956
0.979682
0.880618
0.791349
0.710943
0.638549
0.573394
0.514774
0.462047
0.414632
0.371999
0.333668
0.299202
0.268204
0.240316
0.215212
0.192595
0.172198
0.153777
0.137112
0.122001
0.108261
0.0957269
0.0842411
0.0736657
0.0638482
0.0546986
0.0459599
0.0378134
0.029164
0.0223011
0.00982955
0.0106511
-0.0294373
0.044503
24.9126
25.9804
26.1199
25.9697
25.4821
24.604
23.4289
22.0977
20.7073
19.2988
17.8976
16.5329
15.2268
13.9895
12.8253
11.7366
10.7241
9.78585
8.9192
8.12075
7.38676
6.71327
6.09629
5.53186
5.01616
4.5455
4.11639
3.72553
3.36983
3.04638
2.7525
2.48567
2.24359
2.0241
1.82524
1.64517
1.48224
1.33489
1.20172
1.08144
0.97285
0.874877
0.786526
0.706892
0.635148
0.570539
0.512378
0.460037
0.412946
0.370585
0.332482
0.298208
0.267371
0.239618
0.214627
0.192105
0.171788
0.153433
0.136823
0.121759
0.10806
0.0955585
0.0841012
0.0735503
0.063755
0.0546239
0.0459091
0.0377728
0.0291851
0.0222755
0.0101895
0.0104119
-0.0260348
0.039613
17.9028
19.242
19.9485
20.4163
20.5412
20.2786
19.7132
18.9457
18.0465
17.0612
16.0253
14.9711
13.9251
12.9048
11.9217
10.9839
10.0965
9.26235
8.48216
7.7556
7.08141
6.45772
5.88224
5.35243
4.86563
4.41913
4.01023
3.63629
3.29477
2.98321
2.69931
2.44086
2.20583
1.99227
1.79839
1.62253
1.46314
1.31877
1.18812
1.06995
0.963157
0.866694
0.779617
0.701059
0.630223
0.566381
0.508867
0.457072
0.410442
0.368471
0.330696
0.296698
0.266095
0.238539
0.213714
0.191333
0.171134
0.15288
0.136354
0.121362
0.107723
0.0952736
0.0838608
0.073348
0.0635873
0.0544852
0.0458046
0.0376867
0.0291735
0.0222208
0.0105573
0.0101554
-0.0226009
0.0347113
11.2046
12.7196
13.8051
14.7026
15.3058
15.5677
15.5453
15.3062
14.8973
14.3559
13.7166
13.0115
12.2678
11.5069
10.745
9.9949
9.26605
8.56534
7.89735
7.26496
6.66976
6.11229
5.59231
5.10902
4.6612
4.24737
3.86587
3.5149
3.19266
2.89728
2.62697
2.37994
2.15449
1.949
1.76191
1.59175
1.43716
1.29685
1.16961
1.05432
0.949946
0.855529
0.77018
0.69308
0.623475
0.560673
0.504037
0.452985
0.406982
0.365541
0.328214
0.294596
0.264313
0.237028
0.212432
0.190245
0.17021
0.152095
0.135687
0.120795
0.107241
0.0948644
0.083514
0.073055
0.0633423
0.0542811
0.0456458
0.0375557
0.0291304
0.0221401
0.0109311
0.00989265
-0.0192208
0.0299452
5.05838
6.64784
7.95393
9.11574
10.0475
10.7067
11.1224
11.3337
11.3678
11.2496
11.0058
10.663
10.2453
9.77345
9.26533
8.73597
8.19778
7.66073
7.13261
6.61932
6.1252
5.65332
5.20569
4.78346
4.38713
4.01669
3.67171
3.3515
3.05513
2.78152
2.52951
2.29788
2.08539
1.89079
1.71286
1.55042
1.40232
1.26747
1.14482
1.03341
0.932297
0.840628
0.757596
0.682448
0.614491
0.553078
0.497615
0.447552
0.402385
0.36165
0.32492
0.291805
0.261949
0.235024
0.210733
0.188803
0.168986
0.151055
0.134804
0.120045
0.106604
0.0943238
0.0830561
0.0726682
0.0630187
0.0540115
0.0454338
0.0373819
0.029058
0.0220383
0.0113089
0.00963621
-0.0159689
0.025438
-0.219512
1.3377
2.71856
3.99426
5.10342
6.01275
6.73261
7.2802
7.66766
7.90772
8.0166
8.01221
7.91233
7.73386
7.49264
7.20312
6.87816
6.52896
6.16507
5.79442
5.42353
5.05762
4.70076
4.35606
4.02576
3.71143
3.41406
3.13416
2.87188
2.62708
2.39939
2.18827
1.99307
1.81305
1.6474
1.49529
1.35589
1.22837
1.11189
1.00566
0.908922
0.82093
0.740992
0.66845
0.602686
0.54312
0.489213
0.440461
0.396399
0.356594
0.320648
0.288195
0.258897
0.232443
0.208549
0.186954
0.167421
0.14973
0.133682
0.119094
0.105799
0.0936426
0.082481
0.0721839
0.0626147
0.0536762
0.0451694
0.0371676
0.0289587
0.0219208
0.011688
0.00939995
-0.0129047
0.0212822
-4.15981
-2.72826
-1.39826
-0.140557
1.00461
2.01393
2.88757
3.62958
4.24221
4.72938
5.09822
5.35816
5.5198
5.59433
5.59326
5.52802
5.4096
5.24828
5.05348
4.83362
4.59615
4.34744
4.09292
3.83711
3.58367
3.33553
3.09496
2.86366
2.64286
2.43338
2.23572
2.05008
1.87646
1.71471
1.5645
1.42544
1.29706
1.17882
1.07016
0.970533
0.879346
0.79603
0.720029
0.6508
0.587824
0.530605
0.478671
0.43158
0.388915
0.350287
0.315331
0.283711
0.255113
0.22925
0.205853
0.184678
0.165498
0.148105
0.132308
0.117933
0.104818
0.092815
0.0817839
0.0715985
0.0621271
0.0532728
0.0448507
0.0369118
0.0288302
0.0217894
0.0120571
0.00919425
-0.0100831
0.0175439
-6.70154
-5.45096
-4.25256
-3.0996
-2.01724
-1.02102
-0.115206
0.697672
1.41472
2.03458
2.55832
2.98901
3.33122
3.59075
3.77439
3.88961
3.94429
3.94637
3.90369
3.82373
3.71353
3.57952
3.42749
3.26258
3.08924
2.91126
2.73183
2.55359
2.37863
2.20863
2.04484
1.88821
1.73936
1.59871
1.46645
1.34264
1.22717
1.11987
1.02047
0.928662
0.844076
0.766331
0.695025
0.629753
0.57011
0.515696
0.466124
0.42102
0.380027
0.342804
0.309031
0.278406
0.250645
0.225486
0.202681
0.182004
0.163243
0.146203
0.130705