/*--------------------------------*- C++ -*----------------------------------*\
  =========                 |
  \\      /  F ield         | OpenFOAM: The Open Source CFD Toolbox
   \\    /   O peration     | Website:  https://openfoam.org
    \\  /    A nd           | Version:  11
     \\/     M anipulation  |
\*---------------------------------------------------------------------------*/
FoamFile
{
    format      ascii;
    class       volScalarField;
    location    "500";
    object      p;
}
// * * * * * * * * * * * * * * * * * * * * * * * * * * * * * * * * * * * * * //

dimensions      [0 2 -2 0 0 0 0];

internalField   nonuniform List<scalar> 
11040
(
376.435
356.384
309.003
237.1
153.072
46.1988
-61.2444
-135.963
-127.904
-118.573
-147.089
-204.916
-338.824
-506.963
-652.742
-665.294
-592.271
-386.143
-254.327
-206.475
-180.501
-156.1
-135.737
-120.37
-109.184
-102.768
-90.3765
-67.7574
-53.6372
-43.2735
-33.0271
-22.8982
-13.2364
-3.90195
5.3662
14.7559
24.3759
34.6127
45.2871
58.4036
69.2468
369.266
349.805
307.418
244.867
169.669
77.3074
-16.9747
-86.1395
-103.71
-109.235
-141.364
-199.485
-317.44
-463.093
-590.192
-613.338
-566.674
-394.976
-264.97
-211.51
-183.036
-157.991
-137.2
-121.435
-109.789
-102.652
-90.4671
-68.8563
-54.5207
-43.9473
-33.6429
-23.4777
-13.7762
-4.41084
4.87385
14.2699
23.883
34.1056
44.6941
57.8416
68.0974
357.145
339.058
301.267
245.892
177.538
95.364
9.52827
-59.6801
-94.078
-109.019
-139.793
-194.759
-296.779
-423.959
-539.672
-574.047
-542.773
-401.564
-273.328
-214.057
-184.162
-159.164
-138.151
-122.05
-109.971
-102.125
-90.3547
-69.8876
-55.14
-44.3375
-34.034
-23.8641
-14.1387
-4.75847
4.5269
13.915
23.5055
33.69
44.1685
57.2104
66.8312
341.42
324.657
291.104
242.754
182.256
110.426
34.0677
-31.8283
-76.151
-100.377
-132.603
-185.851
-274.639
-384.397
-488.244
-532.092
-516.654
-403.112
-281.373
-217.431
-185.684
-160.582
-139.289
-122.785
-110.232
-101.577
-90.12
-70.9228
-55.8946
-44.8613
-34.5596
-24.387
-14.6362
-5.24254
4.03735
13.4058
22.9554
33.0673
43.3931
56.1568
65.1404
322.39
306.915
277.498
235.936
183.519
121.591
54.7519
-5.98507
-55.7919
-89.3591
-124.255
-175.276
-251.68
-344.434
-434.887
-483.402
-483.472
-399.439
-289.539
-222.057
-187.568
-162.155
-140.618
-123.642
-110.547
-100.983
-89.7156
-71.9635
-56.8627
-45.5432
-35.2142
-25.0513
-15.2841
-5.88472
3.37474
12.6988
22.1723
32.1505
42.2487
54.5072
62.8239
300.413
286.234
260.775
225.541
181.017
128.471
70.9499
16.3623
-34.6581
-75.0532
-112.737
-161.372
-226.954
-304.405
-381.736
-431.989
-445.15
-389.901
-295.983
-227.155
-189.579
-163.716
-142.059
-124.603
-110.924
-100.424
-89.1958
-72.935
-57.9966
-46.3766
-35.9982
-25.8696
-16.1058
-6.71516
2.50179
11.7468
21.0966
30.8625
40.6428
52.159
59.87
276.072
263.186
241.408
211.912
174.753
130.866
82.2106
34.3319
-14.4043
-58.2035
-98.1405
-144.504
-200.898
-265.108
-330.177
-379.453
-402.329
-372.876
-298.54
-232.043
-191.752
-165.196
-143.508
-125.624
-111.345
-99.9616
-88.6355
-73.756
-59.2353
-47.3827
-36.9361
-26.864
-17.1352
-7.77898
1.36407
10.4838
19.6479
29.1061
38.466
49.0291
56.2221
250.066
238.448
220.006
195.589
165.037
128.925
88.474
47.4481
3.34208
-40.361
-81.0795
-125.034
-173.742
-226.914
-281.086
-327.067
-355.765
-347.578
-295.026
-235.4
-193.804
-166.425
-144.785
-126.618
-111.783
-99.6234
-88.1018
-74.3726
-60.4813
-48.5398
-38.0273
-28.0329
-18.3854
-9.10478
-0.0783754
8.85797
17.7616
26.8086
35.6443
45.1143
51.828
223.164
212.767
197.276
177.251
152.426
123.097
90.0013
55.6122
17.3735
-23.337
-62.7946
-103.836
-146.11
-190.316
-235.231
-276.511
-307.404
-314.746
-283.646
-235.21
-194.924
-167.077
-145.603
-127.399
-112.155
-99.3781
-87.6302
-74.7783
-61.6382
-49.8004
-39.2659
-29.3699
-19.8539
-10.7039
-1.8494
6.83648
15.399
23.9402
32.1626
40.5077
46.7019
196.143
186.901
173.971
157.665
137.668
114.099
87.3997
59.1526
27.1249
-8.71169
-44.9257
-82.2479
-118.934
-155.897
-193.166
-229.187
-259.465
-276.318
-263.685
-229.299
-193.745
-166.579
-145.558
-127.647
-112.269
-99.1031
-87.1861
-74.9829
-62.6231
-51.0909
-40.6355
-30.8758
-21.5475
-12.5968
-3.97996
4.3872
12.5338
20.4991
28.0471
35.3389
40.9403
169.741
161.58
150.838
137.628
121.613
102.827
81.5385
58.744
32.6502
2.51413
-29.052
-61.8237
-93.3653
-124.34
-155.295
-186.068
-213.91
-235.048
-236.049
-216.139
-188.492
-163.945
-144.052
-126.892
-111.797
-98.5735
-86.6461
-74.9621
-63.3512
-52.2972
-42.0753
-32.5324
-23.4646
-14.7957
-6.4946
1.48339
9.14768
16.4941
23.3422
29.7097
34.6954
144.615
137.458
128.568
117.901
105.124
90.2391
73.4207
55.2938
34.4955
10.0527
-16.2478
-43.9368
-70.5395
-96.3456
-121.969
-147.796
-172.256
-193.912
-203.205
-195.678
-177.633
-157.86
-140.235
-124.49
-110.238
-97.4132
-85.7577
-74.6065
-63.7229
-53.2793
-43.4685
-34.2672
-25.5565
-17.2666
-9.37378
-1.86174
5.26187
11.9712
18.1319
23.7153
28.1418
121.302
115.078
107.746
99.1565
88.9863
77.2436
64.0503
49.8004
33.5014
14.221
-6.89318
-29.4347
-51.2948
-72.4801
-93.4733
-114.764
-135.5
-155.426
-168.432
-169.631
-160.777
-147.212
-133.138
-119.656
-106.928
-95.0776
-84.1073
-73.6656
-63.5681
-53.856
-44.6374
-35.9377
-27.7096
-19.9101
-12.525
-5.55511
0.981432
7.05274
12.5639
17.4875
21.4512
100.183
94.8257
88.808
81.9101
73.8345
64.6034
54.3117
43.2096
30.5989
15.7055
-0.758032
-18.5209
-35.9809
-53.0059
-69.9104
-87.1122
-104.154
-121.279
-134.824
-140.907
-139.142
-131.833
-122.136
-111.702
-101.184
-90.9273
-81.1437
-71.7286
-62.5927
-53.7681
-45.3274
-37.3106
-29.7157
-22.531
-15.7561
-9.40179
-3.4898
1.95101
6.85859
11.2188
14.8022
81.477
76.9243
72.0159
66.4977
60.104
52.8733
44.8838
36.2957
26.6324
15.304
2.74716
-10.8811
-24.4548
-37.8102
-51.1301
-64.7183
-78.3139
-92.3208
-104.613
-112.539
-115.131
-112.856
-107.47
-100.443
-92.6044
-84.4492
-76.3281
-68.312
-60.4011
-52.672
-45.2086
-38.065
-31.2672
-24.83
-18.7683
-13.0998
-7.84639
-3.03113
1.30831
5.1683
8.41587
65.3293
61.5168
57.5394
53.1386
48.0886
42.4405
36.2596
29.6487
22.2913
13.7643
4.33659
-5.90772
-16.217
-26.4491
-36.7051
-47.1855
-57.7311
-68.7394
-79.0002
-86.8404
-91.3884
-92.3331
-90.3736
-86.4804
-81.3662
-75.5282
-69.3626
-63.0367
-56.6062
-50.1912
-43.9035
-37.8165
-31.9768
-26.4188
-21.1709
-16.2575
-11.7006
-7.51906
-3.73546
-0.348912
2.56721
51.8159
48.6741
45.4782
41.9796
38.0007
33.6
28.8304
23.7575
18.1753
11.7954
4.78552
-2.81082
-10.5071
-18.1972
-25.9352
-33.8448
-41.8286
-50.2081
-58.3049
-65.1062
-69.9976
-72.4938
-72.7229
-71.1999
-68.3983
-64.7086
-60.485
-55.9187
-51.0822
-46.1102
-41.1303
-36.2299
-31.4688
-26.8936
-22.5419
-18.4436
-14.6217
-11.0935
-7.87435
-4.9638
-2.40156
41.225
38.6239
36.0609
33.2609
30.096
26.6319
22.9093
18.9715
14.683
9.85135
4.58506
-1.09303
-6.86675
-12.6614
-18.5045
-24.4673
-30.4812
-36.7812
-42.9869
-48.4868
-52.885
-55.7569
-57.0174
-56.9035
-55.6819
-53.611
-50.9617
-47.9025
-44.4957
-40.8634
-37.1274
-33.3758
-29.6715
-26.0648
-22.5967
-19.2992
-16.1966
-13.306
-10.641
-8.2037
-6.01706
33.1743
31
28.9205
26.6455
24.0866
21.312
18.3527
15.2383
11.8781
8.14194
4.10426
-0.221569
-4.62405
-9.05069
-13.5152
-18.0588
-22.6336
-27.4023
-32.1409
-36.4724
-40.146
-42.8396
-44.4205
-44.9898
-44.6851
-43.6622
-42.1116
-40.1647
-37.866
-35.3132
-32.6093
-29.8321
-27.0397
-24.2795
-21.5908
-19.0047
-16.5449
-14.2283
-12.0677
-10.0681
-8.24488
27.0008
25.1734
23.4679
21.5962
19.4998
17.2446
14.8548
12.3508
9.67113
6.72689
3.57135
0.21358
-3.20089
-6.63453
-10.0936
-13.6014
-17.1225
-20.7692
-24.4041
-27.7867
-30.7562
-33.0789
-34.6333
-35.4602
-35.6282
-35.2273
-34.3863
-33.2014
-31.7005
-29.9562
-28.0497
-26.0444
-23.9892
-21.925
-19.8864
-17.901
-15.9904
-14.1706
-12.4535
-10.8458
-9.35883
22.1896
20.648
19.236
17.6806
15.9445
14.0898
12.1349
10.095
7.92767
5.57186
3.06696
0.420077
-2.26613
-4.96423
-7.67643
-10.4156
-13.1549
-15.9716
-18.7778
-21.4156
-23.7805
-25.7047
-27.0916
-27.9577
-28.3367
-28.2806
-27.8752
-27.1886
-26.2367
-25.0719
-23.7551
-22.3353
-20.8513
-19.3362
-17.8184
-16.3213
-14.8634
-13.459
-12.1187
-10.8496
-9.6608
18.3907
17.0865
15.9086
14.6055
13.1556
11.6155
9.99994
8.32014
6.54696
4.63821
2.62383
0.509894
-1.62963
-3.77426
-5.92399
-8.08545
-10.2379
-12.4347
-14.617
-16.6789
-18.5509
-20.1127
-21.2921
-22.0963
-22.5426
-22.6613
-22.5098
-22.1362
-21.5492
-20.7857
-19.8901
-18.8991
-17.8424
-16.7456
-15.6313
-14.5183
-13.4217
-12.3536
-11.3232
-10.3373
-9.40322
15.3571
14.251
13.262
12.1628
10.9432
9.65416
8.3074
6.91172
5.4471
3.88439
2.24683
0.539877
-1.18219
-2.90377
-4.62371
-6.34493
-8.05129
-9.77949
-11.4893
-13.1076
-14.5876
-15.8426
-16.8203
-17.5247
-17.9652
-18.1604
-18.1495
-17.9663
-17.6157
-17.1235
-16.5217
-15.8374
-15.0925
-14.3066
-13.497
-12.6783
-11.8627
-11.0598
-10.2773
-9.52114
-8.79761
12.9111
11.971
11.136
10.2035
9.17139
8.08505
6.95417
5.78579
4.5663
3.27564
1.93216
0.540871
-0.857792
-2.25174
-3.63924
-5.02111
-6.38462
-7.75513
-9.10421
-10.3808
-11.5526
-12.5568
-13.3561
-13.9538
-14.3554
-14.5732
-14.6343
-14.5632
-14.3624
-14.0502
-13.6497
-13.1806
-12.6591
-12.0997
-11.5156
-10.9178
-10.3159
-9.71747
-9.12867
-8.55448
-8.00025
10.9221
10.1218
9.41317
8.61816
7.74012
6.81922
5.86359
4.87914
3.85675
2.78277
1.6719
0.528747
-0.616157
-1.75332
-2.88078
-3.99815
-5.0954
-6.19004
-7.26162
-8.27384
-9.2043
-10.007
-10.6559
-11.1539
-11.5049
-11.7175
-11.8111
-11.8032
-11.6957
-11.5015
-11.2374
-10.9177
-10.5543
-10.1579
-9.73833
-9.30409
-8.86231
-8.41893
-7.97884
-7.54599
-7.12502
9.293
8.6106
8.00644
7.32567
6.57519
5.79045
4.97845
4.14424
3.28198
2.38249
1.45771
0.511863
-0.431734
-1.36555
-2.28758
-3.19685
-4.08541
-4.96538
-5.8218
-6.62861
-7.37008
-8.0124
-8.53749
-8.94824
-9.24774
-9.44231
-9.54602
-9.57194
-9.5214
-9.40378
-9.23131
-9.01444
-8.76193
-8.48176
-8.1812
-7.86662
-7.54343
-7.21618
-6.88869
-6.56401
-6.24618
7.9499
7.36725
6.85005
6.26479
5.62062
4.94876
4.25537
3.5449
2.81383
2.05617
1.28172
0.494325
-0.288042
-1.05935
-1.81768
-2.5618
-3.2854
-3.99692
-4.68526
-5.33158
-5.92478
-6.43987
-6.86446
-7.20142
-7.45334
-7.6251
-7.72718
-7.76939
-7.75285
-7.68449
-7.5733
-7.42699
-7.25204
-7.05436
-6.83937
-6.61185
-6.37587
-6.1349
-5.8919
-5.64918
-5.41026
6.83629
6.33824
5.89377
5.38878
4.83371
4.256
3.6612
3.05335
2.43055
1.78911
1.13711
0.478054
-0.174103
-0.814492
-1.44137
-2.05342
-2.64567
-3.224
-3.78015
-4.30039
-4.7769
-5.19114
-5.53475
-5.81049
-6.02064
-6.1691
-6.26379
-6.31218
-6.31531
-6.27835
-6.208
-6.10999
-5.98915
-5.84989
-5.69626
-5.53184
-5.35971
-5.1825
-5.0025
-4.82143
-4.64233
5.90831
5.48216
5.0988
4.66156
4.18149
3.68273
3.17037
2.64811
2.11523
1.56966
1.01813
0.463785
-0.0824476
-0.616632
-1.13721
-1.64294
-2.1299
-2.60221
-3.0537
-3.47436
-3.85869
-4.1929
-4.47146
-4.697
-4.87152
-4.99821
-5.08315
-5.13211
-5.14604
-5.12889
-5.08569
-5.02075
-4.93768
-4.8398
-4.73015
-4.61144
-4.48599
-4.3558
-4.22262
-4.08774
-3.95378
5.13157
4.76664
4.43482
4.05498
3.63832
3.20606
2.76293
2.31242
1.85463
1.38861
0.920013
0.451665
-0.00785238
-0.455344
-0.889457
-1.30907
-1.71112
-2.09852
-2.46668
-2.80828
-3.11949
-3.39006
-3.61644
-3.80106
-3.9457
-4.05301
-4.1277
-4.17427
-4.19361
-4.18878
-4.16358
-4.12127
-4.0646
-3.99607
-3.91799
-3.8324
-3.74107
-3.64551
-3.5471
-3.44675
-3.34673
4.47887
4.16616
3.87796
3.54691
3.18401
2.80797
2.42325
2.03314
1.63832
1.23865
0.83889
0.441555
0.053422
-0.322919
-0.686319
-1.03581
-1.36903
-1.68806
-1.98949
-2.26802
-2.52101
-2.74083
-2.92533
-3.07672
-3.19656
-3.28707
-3.35197
-3.39477
-3.4163
-3.41895
-3.40564
-3.37884
-3.34065
-3.293
-3.23763
-3.17609
-3.10974
-3.03973
-2.96713
-2.89259
-2.81807
3.92855
3.66043
3.40925
3.11976
2.80259
2.47422
2.13893
1.79985
1.45806
1.11397
0.771605
0.433198
0.104114
-0.213555
-0.518852
-0.810981
-1.08814
-1.35185
-1.5996
-1.82757
-2.03401
-2.21325
-2.3641
-2.48852
-2.58792
-2.66414
-2.72013
-2.75866
-2.78052
-2.78756
-2.78203
-2.76586
-2.74066
-2.70789
-2.6689
-2.62487
-2.57685
-2.52572
-2.4723
-2.41707
-2.3617
3.4632
3.23319
3.01352
2.75951
2.48131
2.19347
1.90013
1.60428
1.30729
1.00992
0.715607
0.426305
0.146271
-0.122814
-0.380174
-0.625182
-0.856485
-1.07523
-1.27961
-1.4669
-1.63599
-1.78267
-1.90643
-2.00899
-2.09158
-2.15576
-2.20389
-2.23817
-2.2593
-2.26876
-2.2683
-2.25941
-2.24333
-2.22121
-2.19407
-2.16283
-2.12829
-2.09114
-2.05201
-2.01125
-1.97028
3.06876
2.87137
2.67854
2.45486
2.2099
1.95658
1.69892
1.4398
1.18075
0.922785
0.668827
0.420589
0.181448
-0.047261
-0.26493
-0.47109
-0.664754
-0.846824
-1.01602
-1.17045
-1.30946
-1.42995
-1.53185
-1.61666
-1.68547
-1.73959
-1.78091
-1.81119
-1.83106
-1.84171
-1.84448
-1.84056
-1.83091
-1.81641
-1.79787
-1.77599
-1.75141
-1.72463
-1.69617
-1.66627
-1.63614
2.73382
2.56433
2.39441
2.19665
1.98009
1.75621
1.52893
1.30105
1.07421
0.849552
0.629583
0.41579
0.210843
0.0157906
-0.168913
-0.342946
-0.505617
-0.657667
-0.798235
-0.926031
-1.04073
-1.1401
-1.22432
-1.29472
-1.35223
-1.39797
-1.43347
-1.46013
-1.47851
-1.48956
-1.49436
-1.4938
-1.48867
-1.47965
-1.46737
-1.45237
-1.43514
-1.41608
-1.39561
-1.37388
-1.35193
2.44906
2.30344
2.15307
1.97746
1.78514
1.58637
1.38498
1.18371
0.98424
0.787785
0.596502
0.411668
0.235387
0.068459
-0.0887966
-0.236191
-0.373275
-0.500685
-0.617879
-0.724025
-0.81904
-0.901316
-0.97121
-1.02988
-1.07814
-1.11692
-1.14747
-1.17092
-1.18775
-1.19874
-1.20474
-1.20645
-1.20449
-1.1994
-1.19167
-1.18172
-1.16994
-1.15664
-1.14215
-1.12657
-1.11079
2.20686
2.08164
1.94792
1.79122
1.61957
1.44217
1.26284
1.08422
0.908021
0.73548
0.568447
0.408006
0.255799
0.11242
-0.0219351
-0.147197
-0.26311
-0.370248
-0.468315
-0.556817
-0.635841
-0.704257
-0.762522
-0.811638
-0.852304
-0.885321
-0.911689
-0.932328
-0.947668
-0.958331
-0.964984
-0.968199
-0.968456
-0.966181
-0.961761
-0.955533
-0.947797
-0.938798
-0.928799
-0.917853
-0.906741
2.00093
1.8931
1.77357
1.63295
1.47886
1.31964
1.15905
0.999682
0.843253
0.690984
0.54446
0.404587
0.272629
0.148998
0.0337774
-0.0730656
-0.171433
-0.261861
-0.344242
-0.418334
-0.484341
-0.541491
-0.590292
-0.631606
-0.666039
-0.694269
-0.71711
-0.735312
-0.749247
-0.759421
-0.766366
-0.770537
-0.772315
-0.77204
-0.770018
-0.766514
-0.761765
-0.755963
-0.749322
-0.741865
-0.734269
1.82612
1.73303
1.62549
1.49847
1.35926
1.21545
1.07075
0.92772
0.788054
0.652943
0.523746
0.401209
0.286284
0.179223
0.0800081
-0.0114874
-0.0952941
-0.171928
-0.241424
-0.303726
-0.359118
-0.407095
-0.448183
-0.483122
-0.512436
-0.5367
-0.556581
-0.57269
-0.585349
-0.59497
-0.60198
-0.606741
-0.609559
-0.610706
-0.610422
-0.60892
-0.606387
-0.602975
-0.598856
-0.594034
-0.589098
1.67822
1.59752
1.49999
1.3843
1.25752
1.12666
0.995388
0.866214
0.740771
0.620192
0.505632
0.397697
0.297082
0.20391
0.118076
0.0393703
-0.0323447
-0.0975771
-0.156472
-0.209107
-0.255821
-0.296304
-0.33108
-0.360783
-0.385865
-0.406816
-0.424184
-0.43847
-0.449951
-0.458967
-0.465859
-0.47092
-0.474396
-0.476504
-0.477436
-0.477361
-0.47643
-0.474762
-0.472498
-0.469627
-0.466663
1.55378
1.48347
1.39425
1.28784
1.17124
1.05099
0.930838
0.813242
0.699786
0.591508
0.489352
0.393763
0.305208
0.223694
0.149043
0.0809833
0.0192977
-0.0365162
-0.0866876
-0.131396
-0.171011
-0.205378
-0.235001
-0.260423
-0.282037
-0.300257
-0.315536
-0.328284
-0.338742
-0.347187
-0.353896
-0.359105
-0.363011
-0.36579
-0.367598
-0.368568
-0.368823
-0.368455
-0.367584
-0.366187
-0.364713
1.44992
1.38827
1.306
1.20726
1.09895
0.987299
0.876081
0.76782
0.664112
0.565951
0.474112
0.388882
0.3105
0.23883
0.173597
0.114458
0.0611275
0.0131129
-0.0298678
-0.068055
-0.101831
-0.13115
-0.15649
-0.178319
-0.196982
-0.212837
-0.226261
-0.237597
-0.247052
-0.254857
-0.261237
-0.266384
-0.270458
-0.273602
-0.27594
-0.277582
-0.278623
-0.279141
-0.27923
-0.278868
-0.278438
1.36418
1.30928
1.23237
1.13976
1.03831
0.933891
0.830193
0.729675
0.633904
0.54386
0.460246
0.383293
0.313116
0.249489
0.192047
0.140356
0.0940301
0.052543
0.0155439
-0.0172667
-0.0462793
-0.0715265
-0.0934491
-0.112439
-0.12879
-0.142803
-0.154791
-0.165033
-0.173709
-0.181012
-0.187126
-0.192208
-0.196392
-0.199793
-0.202515
-0.204648
-0.20627
-0.207444
-0.20825
-0.208665
-0.209013
1.29476
1.24425
1.17014
1.08101
0.984175
0.885382
0.788189
0.694794
0.606475
0.523962
0.447725
0.377877
0.314447
0.257213
0.205845
0.159941
0.119117
0.0828654
0.0507935
0.022546
-0.00229375
-0.023853
-0.042569
-0.0588014
-0.0728247
-0.0849114
-0.0953286
-0.104313
-0.112021
-0.118611
-0.124233
-0.129012
-0.133057
-0.13646
-0.139302
-0.141656
-0.143583
-0.145135
-0.146374
-0.147282
-0.148117
1.24069
1.19327
1.12028
1.0319
0.936212
0.839433
0.745494
0.656693
0.57419
0.498424
0.429467
0.367051
0.310835
0.260346
0.215102
0.174633
0.138546
0.106399
0.077862
0.0526371
0.0303802
0.0109632
-0.00597188
-0.0207121
-0.0334915
-0.0445466
-0.0541084
-0.0623837
-0.06952
-0.0756623
-0.0809451
-0.0854819
-0.0893697
-0.0926922
-0.0955228
-0.0979246
-0.0999534
-0.101654
-0.103078
-0.104221
-0.105267
1.20116
1.15846
1.08953
1.00403
0.909826
0.813311
0.719011
0.629855
0.547541
0.472884
0.406122
0.347018
0.295112
0.249745
0.210193
0.175726
0.145687
0.119429
0.0964396
0.0762952
0.0586033
0.0431547
0.0295984
0.0176861
0.00722625
-0.0019625
-0.0100488
-0.0171793
-0.0234578
-0.0289842
-0.0338516
-0.038139
-0.0419151
-0.0452396
-0.0481656
-0.0507396
-0.0530031
-0.0549905
-0.0567392
-0.0582567
-0.0596398
1.17502
1.13622
1.07253
0.993477
0.906018
0.815598
0.726117
0.640211
0.559544
0.485101
0.417362
0.356418
0.302128
0.254154
0.212059
0.175341
0.143497
0.115993
0.0923331
0.0720439
0.0546611
0.0398379
0.0271869
0.0164094
0.00723899
-0.00057054
-0.00723356
-0.0129305
-0.0178016
-0.0219704
-0.0255425
-0.0286048
-0.0312294
-0.0334768
-0.035398
-0.0370359
-0.0384268
-0.0396022
-0.0405859
-0.0414099
-0.0420575
1.16119
1.11218
1.03449
0.944625
0.852475
0.763694
0.681077
0.605702
0.537718
0.476802
0.422434
0.374
0.33089
0.292521
0.258359
0.227923
0.200791
0.176589
0.155014
0.135809
0.118738
0.103584
0.0900792
0.0780544
0.067372
0.0578912
0.0494769
0.0420092
0.0353869
0.0295166
0.0243122
0.0196976
0.015605
0.0119747
0.00875361
0.00589453
0.00335736
0.00110145
-0.000890202
-0.00269739
-0.00414142
103.121
71.1461
53.5134
50.2841
45.8881
40.1485
35.4658
31.7522
28.4666
25.5076
22.8914
20.5784
18.5167
16.6719
15.0192
13.5366
12.2043
11.0056
9.92603
8.9531
8.07569
7.28405
6.56952
5.92444
5.34193
4.81587
4.34078
3.91171
3.52424
3.17437
2.85851
2.57339
2.31608
2.08392
1.87452
1.6857
1.51548
1.36209
1.22391
1.09946
0.987433
0.886614
0.795914
0.714346
0.641011
0.575098
0.515869
0.462658
0.41486
0.371928
0.333365
0.298723
0.267594
0.239612
0.214442
0.191784
0.171363
0.152935
0.136273
0.121175
0.107456
0.0949448
0.0834843
0.0729365
0.0631415
0.0540189
0.0452727
0.0371748
0.0283274
0.0217948
0.00752905
0.0116597
-0.0486935
0.0711655
100.055
71.1721
53.6407
50.1909
45.8415
40.1248
35.4424
31.7341
28.4537
25.4974
22.8832
20.5718
18.5115
16.6676
15.0157
13.5337
12.2019
11.0036
9.92444
8.95178
8.0746
7.28315
6.56879
5.92384
5.34144
4.81547
4.34045
3.91145
3.52403
3.17421
2.85838
2.57329
2.316
2.08387
1.87448
1.68567
1.51547
1.36208
1.22391
1.09947
0.987443
0.886628
0.795931
0.714365
0.641031
0.575119
0.515891
0.46268
0.414882
0.37195
0.333386
0.298744
0.267615
0.239632
0.214462
0.191803
0.171381
0.152952
0.13629
0.121191
0.107471
0.0949592
0.083498
0.0729496
0.0631541
0.054031
0.0452846
0.0371859
0.0283404
0.0218033
0.00755738
0.011644
-0.0484788
0.0708885
95.685
71.1029
53.6991
49.9214
45.7156
40.0667
35.3877
31.6913
28.4233
25.474
22.8644
20.5569
18.4996
16.658
15.008
13.5274
12.1968
10.9994
9.921
8.94898
8.07232
7.28129
6.56728
5.92261
5.34045
4.81468
4.33982
3.91095
3.52364
3.17391
2.85815
2.57312
2.31588
2.08379
1.87444
1.68565
1.51547
1.3621
1.22393
1.0995
0.987487
0.886678
0.795985
0.714421
0.641089
0.575177
0.51595
0.462738
0.41494
0.372006
0.333442
0.298797
0.267667
0.239682
0.21451
0.191849
0.171425
0.152994
0.13633
0.121229
0.107507
0.0949936
0.0835306
0.0729806
0.0631837
0.0540591
0.0453121
0.0372114
0.0283694
0.0218232
0.00761765
0.0116163
-0.0480254
0.0703061
90.2893
70.4453
53.6333
49.4637
45.4621
39.9462
35.2835
31.6091
28.3655
25.4305
22.8301
20.53
18.4785
16.6413
14.9946
13.5167
12.1882
10.9925
9.91543
8.9445
8.06873
7.27842
6.56499
5.92079
5.33902
4.81356
4.33895
3.91029
3.52314
3.17354
2.85789
2.57295
2.31578
2.08374
1.87443
1.68568
1.51552
1.36218
1.22403
1.09961
0.9876
0.886795
0.796105
0.714542
0.641209
0.575297
0.516066
0.462852
0.41505
0.372113
0.333545
0.298896
0.267762
0.239773
0.214596
0.191931
0.171504
0.153068
0.1364
0.121296
0.10757
0.0950533
0.0835871
0.073034
0.0632345
0.0541073
0.0453589
0.0372548
0.0284182
0.0218575
0.00771507
0.011579
-0.047301
0.069374
83.9942
68.923
53.3791
48.7797
45.0025
39.7158
35.1013
31.4631
28.2615
25.3535
22.7701
20.4835
18.4424
16.613
14.9723
13.4991
12.1742
10.9815
9.90667
8.93756
8.06324
7.27409
6.56159
5.91814
5.33696
4.81199
4.33776
3.90941
3.52251
3.1731
2.85761
2.57279
2.31572
2.08375
1.8745
1.6858
1.51567
1.36235
1.22421
1.09981
0.987804
0.887002
0.796312
0.714747
0.641411
0.575493
0.516257
0.463037
0.415227
0.372283
0.333707
0.299052
0.267909
0.239913
0.214729
0.192057
0.171623
0.153181
0.136507
0.121397
0.107665
0.0951427
0.0836714
0.0731135
0.0633098
0.0541783
0.0454276
0.0373185
0.0284891
0.0219084
0.00785463
0.0115327
-0.0462691
0.0680357
76.9875
66.3483
52.7614
47.8112
44.2497
39.3084
34.8008
31.219
28.0824
25.221
22.6674
20.4035
18.3804
16.5647
14.9344
13.4692
12.1507
10.9629
9.89203
8.92601
8.05415
7.26695
6.55601
5.9138
5.33361
4.80942
4.33582
3.90796
3.52146
3.17237
2.85712
2.5725
2.31558
2.08374
1.87457
1.68594
1.51586
1.36258
1.22447
1.10008
0.988087
0.887289
0.796599
0.715032
0.64169
0.575765
0.51652
0.46329
0.415471
0.372516
0.333929
0.299263
0.26811
0.240103
0.214909
0.192227
0.171783
0.153332
0.136649
0.12153
0.107791
0.0952609
0.0837827
0.0732182
0.0634086
0.0542714
0.0455175
0.0374016
0.0285819
0.0219749
0.00803845
0.011476
-0.0448974
0.0662315
69.4845
62.625
51.5425
46.492
43.1248
38.6384
34.3278
30.8351
27.7914
25.0029
22.4976
20.27
18.2759
16.4825
14.8693
13.4177
12.1098
10.9304
9.86624
8.90553
8.0379
7.25408
6.54584
5.90579
5.32732
4.80452
4.33203
3.90506
3.51926
3.17073
2.85593
2.57166
2.31503
2.0834
1.87441
1.68591
1.51594
1.36273
1.22468
1.10033
0.988367
0.887588
0.796909
0.715346
0.642004
0.576075
0.516824
0.463585
0.415756
0.37279
0.334192
0.299513
0.268348
0.240329
0.215123
0.192429
0.171974
0.153512
0.136818
0.121689
0.107939
0.0954006
0.0839138
0.0733413
0.0635247
0.0543805
0.0456229
0.0374988
0.0286918
0.0220524
0.00826495
0.0114049
-0.0431632
0.0639077
61.7616
57.8291
49.4954
44.7299
41.5632
37.6099
33.6117
30.2616
27.3445
24.6626
22.2312
20.0582
18.1075
16.3484
14.7619
13.3314
12.0405
10.8747
9.82135
8.8694
8.00882
7.23071
6.52707
5.89075
5.3153
4.79493
4.32441
3.89903
3.51452
3.16703
2.85306
2.56947
2.31337
2.08218
1.87354
1.68531
1.51555
1.36251
1.2246
1.10035
0.988464
0.887744
0.797108
0.715576
0.642254
0.576338
0.517094
0.463857
0.416026
0.373055
0.33445
0.299763
0.268589
0.240559
0.215342
0.192638
0.172171
0.153698
0.136993
0.121854
0.108095
0.0955464
0.0840508
0.0734699
0.0636461
0.0544947
0.0457337
0.0376008
0.0288105
0.0221331
0.00852943
0.0113136
-0.0410577
0.0610285
54.0858
52.1898
46.4747
42.4034
39.5136
36.1335
32.5671
29.4383
26.691
24.1561
21.8325
19.7387
17.8508
16.1417
14.5946
13.1955
11.9299
10.7845
9.74779
8.80935
7.95981
7.19071
6.49445
5.86416
5.29366
4.77734
4.31015
3.88748
3.5052
3.15952
2.84704
2.56466
2.30955
2.07916
1.87117
1.68347
1.51414
1.36145
1.22381
1.09979
0.988081
0.887502
0.796978
0.715531
0.642278
0.576413
0.517206
0.463998
0.416186
0.373229
0.334632
0.299948
0.268774
0.240743
0.215522
0.192812
0.172339
0.153859
0.137147
0.122
0.108233
0.095677
0.0841742
0.0735863
0.0637566
0.0545991
0.0458366
0.0376954
0.0289275
0.0222073
0.00882511
0.0111962
-0.0385905
0.0575894
46.6
45.9916
42.4715
39.3912
36.9254
34.1373
31.1015
28.2919
25.7719
23.4309
21.2577
19.2761
17.4763
15.8378
14.347
12.9928
11.7636
10.6478
9.63518
8.71647
7.88315
7.12742
6.44218
5.82101
5.25805
4.74797
4.28595
3.86756
3.48882
3.14608
2.83603
2.55565
2.3022
2.07317
1.86631
1.67954
1.51097
1.35891
1.22178
1.09818
0.986813
0.886513
0.796216
0.714954
0.641849
0.576103
0.516993
0.463861
0.41611
0.373199
0.334639
0.299983
0.26883
0.240814
0.215604
0.192901
0.172433
0.153954
0.137242
0.122094
0.108325
0.095767
0.0842614
0.0736704
0.0638384
0.0546778
0.0459173
0.03777
0.0290318
0.0222653
0.0091448
0.0110477
-0.0357926
0.0536274
39.2861
39.4663
37.6067
35.6192
33.7411
31.5672
29.1269
26.7376
24.5178
22.4255
20.4531
18.6255
16.9469
15.4059
13.9934
12.7022
11.524
10.4498
9.47123
8.58048
7.77019
7.03348
6.36401
5.75592
5.20384
4.70283
4.24835
3.83627
3.46278
3.12443
2.81804
2.54071
2.28981
2.06292
1.85782
1.67252
1.50519
1.35414
1.21786
1.09496
0.984182
0.884366
0.794468
0.713536
0.640703
0.575181
0.516255
0.463274
0.415647
0.372838
0.33436
0.299771
0.268672
0.2407
0.215524
0.192849
0.172402
0.153941
0.137243
0.122105
0.108344
0.0957911
0.0842902
0.0737027
0.0638743
0.0547158
0.0459629
0.0378133
0.0291141
0.0222994
0.00948217
0.0108662
-0.032717
0.0492247
32.0648
32.7611
32.081
31.105
29.9199
28.3888
26.5778
24.6924
22.8524
21.0707
19.3551
17.7317
16.2154
14.8059
13.5001
12.2954
11.1876
10.171
9.23977
8.38793
7.60975
6.89962
6.2522
5.66243
5.12561
4.63733
4.19349
3.7903
3.42427
3.09216
2.791
2.51807
2.27085
2.04704
1.84455
1.66142
1.49591
1.3464
1.2114
1.08958
0.979695
0.880631
0.791362
0.710956
0.638562
0.573407
0.514787
0.46206
0.414645
0.372012
0.33368
0.299213
0.268215
0.240326
0.21522
0.192601
0.172202
0.153779
0.137113
0.122001
0.108262
0.0957273
0.0842416
0.073667
0.0638505
0.0547015
0.0459636
0.0378172
0.0291676
0.0223046
0.00983248
0.0106532
-0.0294355
0.0445037
24.9125
25.9803
26.1198
25.9696
25.482
24.604
23.4288
22.0976
20.7073
19.2988
17.8976
16.5328
15.2268
13.9895
12.8253
11.7366
10.724
9.78584
8.9192
8.12075
7.38675
6.71327
6.09629
5.53187
5.01616
4.5455
4.1164
3.72554
3.36983
3.04639
2.7525
2.48568
2.2436
2.02411
1.82525
1.64519
1.48225
1.33491
1.20174
1.08145
0.972864
0.87489
0.786539
0.706905
0.635161
0.570552
0.512391
0.46005
0.412959
0.370598
0.332494
0.298219
0.267381
0.239627
0.214634
0.19211
0.17179
0.153435
0.136824
0.121759
0.108059
0.0955586
0.0841017
0.0735515
0.0637575
0.054627
0.045913
0.0377769
0.0291891
0.0222793
0.0101926
0.0104141
-0.0260331
0.0396135
17.9027
19.2419
19.9484
20.4162
20.5411
20.2785
19.7131
18.9456
18.0465
17.0612
16.0253
14.9711
13.925
12.9048
11.9217
10.9838
10.0965
9.26234
8.48216
7.75559
7.08141
6.45772
5.88224
5.35243
4.86564
4.41914
4.01024
3.6363
3.29477
2.98322
2.69931
2.44087
2.20584
1.99228
1.7984
1.62254
1.46315
1.31879
1.18813
1.06997
0.963171
0.866708
0.779631
0.701073
0.630237
0.566395
0.50888
0.457085
0.410455
0.368483
0.330707
0.296709
0.266105
0.238548
0.213721
0.191338
0.171136
0.15288
0.136354
0.121362
0.107722
0.0952735
0.0838612
0.0733494
0.0635899
0.0544886
0.0458088
0.0376911
0.0291778
0.0222247
0.0105605
0.0101576
-0.0225993
0.0347117
11.2046
12.7196
13.8051
14.7025
15.3057
15.5677
15.5453
15.3062
14.8973
14.3559
13.7166
13.0115
12.2678
11.5069
10.745
9.99488
9.26604
8.56533
7.89734
7.26496
6.66976
6.1123
5.59232
5.10902
4.6612
4.24738
3.86587
3.51491
3.19266
2.89729
2.62697
2.37995
2.1545
1.94901
1.76192
1.59177
1.43718
1.29686
1.16962
1.05433
0.949961
0.855544
0.770195
0.693094
0.623489
0.560686
0.50405
0.452997
0.406994
0.365552
0.328225
0.294606
0.264322
0.237036
0.212438
0.190249
0.170212
0.152095
0.135687
0.120794
0.10724
0.0948642
0.0835144
0.0730564
0.0633451
0.0542848
0.0456503
0.0375605
0.0291351
0.0221443
0.0109344
0.00989488
-0.0192195
0.0299454
5.05835
6.64781
7.95389
9.1157
10.0475
10.7066
11.1224
11.3336
11.3678
11.2496
11.0058
10.663
10.2453
9.77343
9.26532
8.73595
8.19776
7.66073
7.13261
6.61932
6.1252
5.65333
5.20569
4.78346
4.38714
4.01669
3.67172
3.35151
3.05513
2.78152
2.52952
2.29789
2.0854
1.8908
1.71287
1.55043
1.40233
1.26748
1.14484
1.03342
0.932312
0.840643
0.75761
0.682463
0.614505
0.553091
0.497628
0.447565
0.402397
0.361661
0.32493
0.291815
0.261957
0.235031
0.210738
0.188806
0.168987
0.151055
0.134804
0.120044
0.106603
0.0943235
0.0830566
0.0726698
0.0630217
0.0540155
0.0454387
0.0373871
0.029063
0.0220426
0.0113122
0.00963829
-0.0159678
0.025438
-0.219532
1.33768
2.71854
3.99424
5.1034
6.01273
6.73259
7.28018
7.66764
7.9077
8.01657
8.01219
7.91231
7.73384
7.49263
7.2031
6.87815
6.52896
6.16507
5.79442
5.42354
5.05762
4.70077
4.35606
4.02577
3.71144
3.41406
3.13416
2.87188
2.62708
2.39939
2.18828
1.99308
1.81306
1.64741
1.4953
1.35591
1.22838
1.11191
1.00568
0.908937
0.820945
0.741007
0.668464
0.602699
0.543133
0.489225
0.440473
0.39641
0.356604
0.320658
0.288204
0.258904
0.232449
0.208553
0.186957
0.167422
0.14973
0.133681
0.119093
0.105798
0.0936423
0.0824816
0.0721858
0.0626179
0.0536805
0.0451746
0.0371731
0.0289639
0.0219252
0.0116913
0.00940184
-0.012904
0.0212818
-4.15983
-2.72828
-1.39827
-0.140566
1.00461
2.01392
2.88756
3.62957
4.2422
4.72936
5.0982
5.35815
5.51978
5.59431
5.59325
5.52801
5.40959
5.24827
5.05347
4.83363
4.59615
4.34744
4.09293
3.83712
3.58368
3.33554
3.09497
2.86367
2.64287
2.43339
2.23572
2.05008
1.87647
1.71472
1.56451
1.42546
1.29707
1.17883
1.07018
0.97055
0.879362
0.796046
0.720044
0.650815
0.587838
0.530618
0.478683
0.431592
0.388926
0.350296
0.31534
0.283719
0.25512
0.229255
0.205857
0.18468
0.165498
0.148104
0.132307
0.117932
0.104818
0.0928148
0.0817846
0.0716005
0.0621306
0.0532774
0.0448562
0.0369176
0.0288356
0.0217939
0.0120602
0.00919579
-0.0100829
0.0175432
-6.70156
-5.45097
-4.25257
-3.0996
-2.01725
-1.02102
-0.115208
0.69767
1.41472
2.03458
2.55832
2.98901
3.33122
3.59075
3.77438
3.88961
3.94428
3.94636
3.90368
3.82373
3.71353
3.57952
3.4275
3.26259
3.08925
2.91127
2.73184
2.55359
2.37864
2.20863
2.04485
1.88821
1.73937
1.59872
1.46647
1.34265
1.22718
1.11989
1.02049
0.928678
0.844092
0.766346
0.69504
0.629768
0.570123
0.515709
0.466136
0.421031
0.380037
0.342813
0.309039
0.278413
0.250651
0.22549
0.202684
0.182006
0.163243
0.146203
0.130704
0.11658
0.103678
0.0918549