/*--------------------------------*- C++ -*----------------------------------*\
  =========                 |
  \\      /  F ield         | OpenFOAM: The Open Source CFD Toolbox
   \\    /   O peration     | Website:  https://openfoam.org
    \\  /    A nd           | Version:  11
     \\/     M anipulation  |
\*---------------------------------------------------------------------------*/
FoamFile
{
    format      ascii;
    class       volVectorField;
    location    "500";
    object      U;
}
// * * * * * * * * * * * * * * * * * * * * * * * * * * * * * * * * * * * * * //

dimensions      [0 1 -1 0 0 0 0];

internalField   nonuniform List<vector> 
11040
(
(1.62178 2.09387 7.55349e-18)
(2.19255 6.41654 -1.65464e-17)
(3.7885 10.8827 -1.80044e-17)
(6.36244 14.7418 2.29646e-17)
(9.63214 17.9374 -1.18069e-17)
(13.6797 20.2065 4.31648e-18)
(18.1186 21.1094 0)
(21.2674 19.2179 -6.99073e-18)
(22.559 16.561 0)
(23.4495 15.0942 -1.51022e-17)
(24.6091 14.8343 0)
(26.6945 15.8874 0)
(30.2451 17.0554 3.42753e-17)
(34.9033 16.8709 0)
(37.8989 13.1924 0)
(36.6837 6.79163 0)
(28.8892 -0.667953 0)
(21.407 -4.46436 5.94233e-17)
(18.8605 -4.83995 4.65314e-17)
(18.9824 -4.24429 -3.69596e-17)
(19.3647 -3.85245 3.11609e-17)
(19.3831 -3.65593 -8.97746e-19)
(19.2278 -3.5313 -2.38199e-17)
(19.0627 -3.43711 2.64889e-19)
(19.0274 -3.36816 0)
(18.8755 -3.46179 0)
(18.0579 -3.64823 0)
(17.2752 -3.64539 0)
(16.7829 -3.54847 2.05882e-17)
(16.4252 -3.45181 0)
(16.0644 -3.36251 0)
(15.6813 -3.27336 5.24984e-20)
(15.2859 -3.1829 1.36326e-20)
(14.8745 -3.09069 -1.38686e-20)
(14.4347 -2.99427 1.08716e-18)
(13.9566 -2.89083 -3.18653e-18)
(13.4116 -2.77457 -5.32385e-18)
(12.8042 -2.64379 -6.19811e-20)
(11.9752 -2.47231 3.71141e-20)
(11.2458 -2.2542 0)
(8.53753 -2.03196 1.92523e-17)
(2.78967 1.9863 -1.16127e-18)
(3.50731 5.94541 -6.78347e-19)
(5.26157 9.85314 -1.13129e-17)
(8.01539 13.178 -4.59442e-18)
(11.3958 15.8456 0)
(15.5953 17.519 1.0939e-18)
(20.0829 17.7229 4.28299e-19)
(24.0459 16.2438 2.27495e-18)
(25.7484 14.7635 -9.78456e-18)
(26.3187 14.324 -9.8976e-20)
(27.0796 14.5761 -2.3379e-19)
(28.7005 15.6323 7.91904e-19)
(32.0286 15.9714 0)
(36.5438 14.219 0)
(40.7773 9.26385 0)
(43.1239 3.60227 9.19565e-18)
(39.9555 -2.5778 1.83021e-18)
(33.2533 -4.69667 -3.19309e-17)
(27.9674 -4.33609 -2.08452e-17)
(25.2289 -3.96871 -4.73544e-19)
(23.891 -3.86867 -1.73084e-17)
(23.0501 -3.78748 1.56278e-17)
(22.4475 -3.70239 -4.71557e-19)
(22.0028 -3.64379 -9.0115e-20)
(21.7396 -3.62355 -1.16489e-17)
(21.4965 -3.81698 3.25461e-19)
(20.9156 -4.08 -1.01672e-17)
(20.1105 -3.9666 -1.09492e-19)
(19.4833 -3.82213 -6.16914e-18)
(18.9848 -3.72519 0)
(18.5236 -3.63881 0)
(18.0781 -3.55039 -5.80684e-18)
(17.645 -3.46118 3.64497e-20)
(17.214 -3.37043 5.81514e-19)
(16.7708 -3.27456 -5.51932e-20)
(16.3067 -3.17069 0)
(15.7975 -3.05367 3.24577e-18)
(15.26 -2.9211 -1.54323e-20)
(14.536 -2.74631 -6.182e-18)
(14.0264 -2.52689 0)
(12.1217 -2.28603 -1.97502e-17)
(4.43194 1.81285 0)
(5.14849 5.41536 4.83139e-18)
(6.71617 8.92259 3.85546e-18)
(9.05439 11.9941 1.01067e-17)
(11.967 14.4907 -5.62911e-19)
(15.5027 16.2062 4.45284e-18)
(19.3029 16.8298 -5.21347e-19)
(22.6212 16.1276 9.25113e-19)
(24.5727 15.174 1.71492e-18)
(25.6807 14.7775 -7.67569e-18)
(26.8615 14.8011 0)
(28.7138 15.3557 -8.61391e-19)
(31.8295 15.3648 1.6185e-17)
(35.8909 13.8266 -2.12607e-17)
(39.4464 9.55218 0)
(41.4872 4.27796 -7.30966e-18)
(40.7492 -1.85063 1.37982e-18)
(36.878 -4.45663 2.04444e-17)
(32.6856 -4.68085 -1.74575e-17)
(29.7002 -4.53842 1.42234e-17)
(27.7393 -4.42447 1.19948e-17)
(26.3496 -4.28187 -1.0832e-17)
(25.3445 -4.14859 0)
(24.6071 -4.05915 9.45743e-18)
(24.1154 -4.01687 8.92064e-18)
(23.6696 -4.16416 -5.05244e-19)
(22.9454 -4.37679 7.52294e-18)
(22.1425 -4.28797 -1.64319e-19)
(21.484 -4.1646 4.93833e-18)
(20.9412 -4.07153 -3.9123e-18)
(20.4356 -3.97853 3.06362e-18)
(19.9446 -3.87981 2.14904e-18)
(19.4669 -3.7794 -1.33882e-18)
(18.9949 -3.67675 -4.13939e-19)
(18.5152 -3.56828 -4.6199e-19)
(18.019 -3.45043 1.34785e-18)
(17.4824 -3.31828 -1.43194e-20)
(16.9202 -3.16399 0)
(16.1959 -2.97379 8.46247e-20)
(15.6317 -2.69625 -3.24692e-20)
(14.038 -2.41796 6.86226e-18)
(6.22554 1.63571 0)
(6.89176 4.89409 -1.22636e-18)
(8.26758 8.02816 -2.94409e-18)
(10.2752 10.8091 -7.92931e-18)
(12.8115 13.0874 2.21214e-18)
(15.8508 14.7296 -5.71016e-18)
(19.1351 15.515 -2.05886e-18)
(22.0877 15.2863 1.24292e-18)
(24.1905 14.5816 4.89637e-18)
(25.5838 14.175 1.02034e-17)
(26.9089 14.163 -1.63296e-18)
(28.7576 14.537 -3.88823e-19)
(31.5538 14.4604 2.63116e-19)
(35.1184 13.1066 1.89294e-17)
(38.3653 9.52433 -2.29898e-18)
(40.0986 4.88418 0)
(39.6588 -0.705977 -2.13679e-18)
(37.0447 -3.81122 2.47417e-18)
(33.9906 -4.51249 2.83831e-17)
(31.6742 -4.54847 -6.78127e-19)
(29.9728 -4.52452 1.05107e-17)
(28.5961 -4.44552 6.37116e-19)
(27.4893 -4.34406 0)
(26.6148 -4.26812 0)
(25.9737 -4.22751 -7.42885e-18)
(25.4099 -4.34852 4.21003e-19)
(24.6351 -4.54961 -5.73472e-18)
(23.808 -4.49932 0)
(23.1129 -4.38399 -3.66157e-18)
(22.536 -4.28692 2.8895e-18)
(22.0034 -4.19119 -4.83967e-18)
(21.4882 -4.08943 -1.6958e-18)
(20.9878 -3.98451 1.03863e-18)
(20.4957 -3.87604 0)
(19.9997 -3.76054 0)
(19.4911 -3.63378 -4.49393e-20)
(18.9482 -3.49113 0)
(18.3837 -3.32069 0)
(17.6802 -3.11705 3.45063e-18)
(17.1087 -2.79868 -4.89359e-20)
(15.7128 -2.49069 1.82073e-20)
(8.07608 1.46032 -2.66075e-19)
(8.68636 4.37766 0)
(9.8832 7.14866 3.10333e-18)
(11.5882 9.6296 -1.08992e-18)
(13.7481 11.6937 4.55195e-18)
(16.3147 13.2579 -5.53733e-18)
(19.1007 14.166 2.48361e-18)
(21.696 14.3324 -1.6894e-19)
(23.8199 13.9832 0)
(25.4002 13.6992 -4.97306e-19)
(26.8351 13.6573 5.92789e-18)
(28.6651 13.8162 4.58472e-18)
(31.184 13.5827 -8.93311e-18)
(34.2842 12.333 0)
(37.224 9.31895 -1.42982e-17)
(38.9898 5.24077 0)
(38.738 0.23836 7.00004e-18)
(36.6203 -3.02553 -2.2097e-19)
(34.033 -4.05684 -1.01304e-18)
(32.0885 -4.26149 2.55572e-18)
(30.7265 -4.3601 -9.86495e-18)
(29.621 -4.38545 -8.96967e-18)
(28.6807 -4.35205 9.64414e-19)
(27.8843 -4.31947 0)
(27.2488 -4.30664 6.25665e-18)
(26.679 -4.41914 -6.68165e-19)
(25.9479 -4.61507 5.07641e-18)
(25.1562 -4.60615 -2.21421e-19)
(24.4623 -4.50857 4.05139e-19)
(23.8757 -4.41749 -2.65622e-18)
(23.3363 -4.3275 1.76098e-18)
(22.8168 -4.22895 1.59242e-18)
(22.3129 -4.12409 -1.77274e-20)
(21.8188 -4.01348 -2.20905e-20)
(21.3232 -3.89401 2.34975e-21)
(20.8184 -3.7609 -1.66087e-20)
(20.2851 -3.60966 -5.96948e-20)
(19.7352 -3.4254 2.63473e-20)
(19.07 -3.20819 -2.60238e-18)
(18.5219 -2.86088 0)
(17.3326 -2.5252 3.73142e-18)
(9.94003 1.28843 9.85822e-19)
(10.4922 3.87214 -6.97348e-19)
(11.5202 6.29634 2.12197e-18)
(12.9499 8.48035 -3.73852e-18)
(14.7556 10.3298 -2.49828e-18)
(16.891 11.7971 9.06399e-18)
(19.2218 12.7755 2.03187e-18)
(21.4604 13.23 4.98402e-19)
(23.5038 13.2136 0)
(25.2049 13.0734 -4.88974e-18)
(26.7365 13.0089 -4.75091e-18)
(28.5326 12.9977 -2.47948e-18)
(30.7886 12.6451 2.82213e-18)
(33.4523 11.5053 1.84481e-18)
(36.0463 9.02909 1.21054e-17)
(37.8405 5.59136 -2.52267e-18)
(37.9714 1.20035 -3.23012e-18)
(36.336 -2.10739 -2.21182e-17)
(34.0119 -3.49342 -9.74772e-18)
(32.1328 -3.9041 1.90142e-18)
(30.8544 -4.10391 4.48072e-18)
(29.8901 -4.20934 7.60745e-18)
(29.0945 -4.23608 -6.10088e-18)
(28.4187 -4.24625 0)
(27.8611 -4.26594 0)
(27.3609 -4.37622 0)
(26.7461 -4.56467 3.9594e-18)
(26.0553 -4.59822 0)
(25.4183 -4.53199 0)
(24.8654 -4.45652 2.18879e-18)
(24.3549 -4.37854 0)
(23.8615 -4.28898 -1.28326e-18)
(23.381 -4.18939 8.15212e-19)
(22.909 -4.08119 0)
(22.4364 -3.96187 0)
(21.9565 -3.8263 -6.43263e-19)
(21.4535 -3.67013 2.60084e-20)
(20.9387 -3.47677 1.55876e-18)
(20.3336 -3.24946 2.09676e-18)
(19.8302 -2.88871 -2.5847e-18)
(18.8633 -2.53819 -3.01582e-18)
(11.7801 1.12261 0)
(12.2732 3.38649 0)
(13.1451 5.48489 1.62846e-18)
(14.3298 7.38325 1.26372e-18)
(15.8148 9.01963 0)
(17.5651 10.3725 -3.35373e-18)
(19.4881 11.3719 -4.85593e-19)
(21.3859 12.0069 -1.77377e-18)
(23.2665 12.2593 6.52779e-19)
(24.9933 12.281 -2.36773e-20)
(26.5777 12.2347 0)
(28.3194 12.1183 2.08781e-18)
(30.3348 11.691 -1.43823e-17)
(32.6098 10.66 6.26657e-18)
(34.8662 8.65313 4.04893e-18)
(36.6113 5.84444 8.73434e-18)
(37.1352 2.12405 -6.44914e-18)
(36.077 -1.09713 6.68864e-18)
(34.1071 -2.812 -8.09228e-18)
(32.2766 -3.47505 0)
(30.963 -3.79079 -6.06352e-18)
(30.0057 -3.97407 -5.64406e-18)
(29.2467 -4.05909 1.01905e-17)
(28.6153 -4.10728 0)
(28.094 -4.15413 4.1988e-18)
(27.6363 -4.26007 3.74514e-18)
(27.1167 -4.43095 3.57898e-19)
(26.5294 -4.49588 -7.08637e-20)
(25.9674 -4.46312 -3.26866e-19)
(25.4694 -4.40609 0)
(25.0089 -4.34201 0)
(24.563 -4.26454 1.07219e-18)
(24.1265 -4.17378 1.44143e-20)
(23.6966 -4.07134 3.78377e-19)
(23.2665 -3.95536 0)
(22.8311 -3.82072 -4.0711e-19)
(22.378 -3.6631 -3.19463e-20)
(21.9178 -3.46588 -1.23109e-18)
(21.3937 -3.23323 1.53685e-18)
(20.953 -2.87576 2.15161e-18)
(20.2137 -2.52291 0)
(13.5593 0.965635 0)
(13.994 2.92939 -1.46842e-18)
(14.7258 4.727 2.50542e-18)
(15.6975 6.35729 -6.98798e-18)
(16.9026 7.78583 3.55673e-18)
(18.3187 9.00887 2.77402e-18)
(19.8853 9.98367 0)
(21.4688 10.7072 1.20004e-18)
(23.1333 11.1465 0)
(24.7907 11.3219 3.96051e-19)
(26.3658 11.3258 -1.11807e-18)
(28.0284 11.1638 1.05524e-18)
(29.8251 10.7097 3.82638e-18)
(31.7634 9.79318 1.69609e-18)
(33.7041 8.18561 -6.39113e-19)
(35.3343 5.94502 -9.5815e-18)
(36.1484 2.91134 4.27723e-19)
(35.6728 -0.0623225 0)
(34.1783 -2.00253 3.66548e-18)
(32.5085 -2.9401 6.25623e-19)
(31.1806 -3.40695 5.18072e-18)
(30.1966 -3.68293 5.71856e-18)
(29.4264 -3.83622 1.17369e-18)
(28.789 -3.92836 0)
(28.2603 -4.00258 -3.47578e-18)
(27.8008 -4.10674 -3.10893e-18)
(27.3203 -4.25595 -2.73988e-18)
(26.7952 -4.33776 0)
(26.2832 -4.33348 1.99006e-18)
(25.8223 -4.29373 0)
(25.3991 -4.24144 0)
(24.9932 -4.17458 0)
(24.5975 -4.09212 -6.04055e-19)
(24.2095 -3.99528 -6.25151e-19)
(23.8238 -3.8829 -9.49114e-21)
(23.4362 -3.75024 6.22258e-19)
(23.0382 -3.59301 0)
(22.6387 -3.39613 -8.52082e-19)
(22.2021 -3.16272 -2.50749e-18)
(21.8308 -2.82301 -1.45798e-18)
(21.2983 -2.47697 -2.50587e-20)
(15.2449 0.81996 0)
(15.624 2.50775 1.24369e-18)
(16.233 4.03246 -2.75663e-21)
(17.0236 5.41661 3.72512e-19)
(17.9922 6.64659 -3.04175e-18)
(19.1264 7.72975 -2.37457e-18)
(20.3885 8.64224 1.66927e-18)
(21.6906 9.38209 -1.01378e-18)
(23.1155 9.92412 -5.90561e-20)
(24.6274 10.2196 6.87391e-19)
(26.1242 10.2908 0)
(27.6755 10.1351 -5.52774e-18)
(29.2688 9.70193 5.11415e-18)
(30.9194 8.91048 -6.63054e-18)
(32.5752 7.6385 0)
(34.0505 5.89062 -2.44426e-18)
(35.0266 3.50979 7.21898e-18)
(35.0491 0.919725 -4.91932e-18)
(34.0849 -1.09663 0)
(32.6991 -2.28441 0)
(31.4369 -2.93274 0)
(30.451 -3.32068 -5.65964e-18)
(29.6723 -3.55448 2.50251e-19)
(29.0216 -3.70151 -1.48334e-18)
(28.4738 -3.80918 2.8829e-18)
(27.9964 -3.92012 1.20333e-18)
(27.5246 -4.05405 -1.19873e-18)
(27.0317 -4.1446 1.9733e-18)
(26.5475 -4.16453 2.89926e-20)
(26.1034 -4.14227 0)
(25.6963 -4.10067 -2.36624e-19)
(25.3105 -4.04246 2.3898e-19)
(24.9383 -3.96686 5.79193e-19)
(24.5767 -3.87459 2.77828e-19)
(24.2217 -3.76501 0)
(23.8701 -3.63413 -2.26684e-19)
(23.5164 -3.47792 0)
(23.1674 -3.28426 7.29853e-19)
(22.8049 -3.05421 9.73342e-19)
(22.4938 -2.74169 2.30698e-18)
(22.1161 -2.41101 0)
(16.8108 0.687431 9.75788e-19)
(17.1385 2.12598 -2.59168e-18)
(17.6423 3.40705 -2.97832e-18)
(18.2823 4.56941 5.70151e-18)
(19.056 5.61374 0)
(19.9579 6.5532 -1.63177e-18)
(20.9655 7.37634 1.36649e-18)
(22.0223 8.08035 -1.2274e-18)
(23.2087 8.65231 -1.49337e-19)
(24.5273 9.01978 -7.13487e-19)
(25.8847 9.15665 8.3551e-19)
(27.2897 9.04319 2.86566e-18)
(28.6879 8.66961 -5.32218e-18)
(30.0917 8.01303 6.39473e-18)
(31.4962 7.02321 -3.43906e-18)
(32.7988 5.68818 4.87371e-18)
(33.8216 3.88601 -3.70069e-18)
(34.207 1.76001 8.01129e-18)
(33.7496 -0.167564 0)
(32.7361 -1.52232 0)
(31.634 -2.35455 -3.20668e-18)
(30.6962 -2.87026 4.56048e-19)
(29.9323 -3.19597 3.08971e-18)
(29.2825 -3.40962 2.62406e-18)
(28.7239 -3.56033 -3.48618e-18)
(28.2325 -3.68937 -9.76921e-19)
(27.7631 -3.81955 -8.57943e-19)
(27.2919 -3.91657 -1.48917e-18)
(26.8293 -3.9573 7.77489e-19)
(26.3969 -3.95406 0)
(25.9975 -3.9251 2.01967e-19)
(25.6216 -3.87639 -3.53211e-19)
(25.2619 -3.80834 -3.23279e-19)
(24.9153 -3.72141 0)
(24.5791 -3.61531 0)
(24.2512 -3.48726 0)
(23.9286 -3.33391 0)
(23.6165 -3.14684 4.37002e-19)
(23.3076 -2.92543 0)
(23.0422 -2.64435 -8.60461e-19)
(22.7596 -2.33896 -2.681e-20)
(18.2384 0.56913 0)
(18.5195 1.7859 0)
(18.9349 2.85252 -2.14858e-18)
(19.4515 3.81822 0)
(20.0677 4.69269 0)
(20.7817 5.49102 0)
(21.5807 6.20927 0)
(22.4286 6.84427 0)
(23.3944 7.39258 0)
(24.5009 7.78355 -8.89233e-19)
(25.6778 7.96843 7.04439e-19)
(26.9069 7.91285 -6.30805e-19)
(28.1132 7.62181 2.01521e-18)
(29.3006 7.10384 2.81594e-18)
(30.4844 6.35157 -3.92117e-18)
(31.6116 5.35347 2.88625e-18)
(32.5947 4.03139 -7.77058e-21)
(33.1944 2.38306 -5.51964e-18)
(33.1549 0.685818 2.96599e-18)
(32.5444 -0.708241 -3.16656e-18)
(31.6864 -1.68267 0)
(30.8588 -2.32593 -2.53093e-18)
(30.1441 -2.7496 -4.58962e-18)
(29.5181 -3.03827 4.30972e-18)
(28.9663 -3.24144 -2.07011e-18)
(28.4736 -3.40005 1.6299e-18)
(28.0111 -3.53946 -1.61382e-18)
(27.5603 -3.64572 -6.148e-19)
(27.1206 -3.70534 -1.03464e-18)
(26.7039 -3.72232 -4.35867e-19)
(26.3148 -3.70888 0)
(25.9489 -3.672 0)
(25.6006 -3.61361 -4.57385e-19)
(25.2673 -3.53444 -2.49587e-19)
(24.9469 -3.43463 9.70773e-20)
(24.6385 -3.31261 4.59841e-22)
(24.3408 -3.16609 0)
(24.0579 -2.99005 -3.07751e-19)
(23.7881 -2.78356 -4.72595e-20)
(23.5576 -2.53523 0)
(23.3297 -2.26449 5.83417e-19)
(19.5165 0.465392 0)
(19.7564 1.48704 -1.8688e-18)
(20.0981 2.36723 3.62501e-18)
(20.5147 3.16106 0)
(21.005 3.88336 0)
(21.5689 4.54872 2.05214e-18)
(22.1992 5.15729 3.08536e-18)
(22.8731 5.70627 -1.86398e-18)
(23.645 6.19783 0)
(24.5448 6.57351 4.68569e-21)
(25.5249 6.78143 -9.94095e-19)
(26.5616 6.78084 -7.16786e-19)
(27.5783 6.57759 1.89862e-18)
(28.5709 6.19215 5.96975e-19)
(29.5588 5.63855 -2.64068e-18)
(30.5161 4.91087 1.02457e-18)
(31.4053 3.96669 -3.45677e-18)
(32.0875 2.75152 3.94606e-18)
(32.3371 1.36817 1.05407e-18)
(32.0946 0.0691977 2.17143e-18)
(31.5287 -0.962804 0)
(30.8727 -1.70368 2.09831e-18)
(30.2499 -2.21785 -1.72445e-18)
(29.677 -2.58235 3.68523e-18)
(29.1549 -2.84376 0)
(28.6784 -3.04135 2.78993e-18)
(28.2325 -3.20178 0)
(27.8051 -3.32314 1.00877e-18)
(27.3914 -3.40172 -1.0221e-18)
(26.9965 -3.43955 7.87958e-19)
(26.6242 -3.44429 -2.92732e-19)
(26.2731 -3.42229 2.94735e-19)
(25.9401 -3.37657 2.09097e-19)
(25.6231 -3.30852 4.07499e-19)
(25.3208 -3.21879 -7.66304e-20)
(25.0331 -3.10698 -9.7744e-20)
(24.7598 -2.97212 0)
(24.5041 -2.81198 1.50117e-19)
(24.2663 -2.6265 4.01966e-20)
(24.0639 -2.41156 -4.00913e-20)
(23.8712 -2.18059 -4.74317e-19)
(20.6412 0.375932 0)
(20.8448 1.22741 -3.37082e-18)
(21.1255 1.94727 6.0884e-18)
(21.4612 2.59292 -2.29748e-18)
(21.8513 3.18167 1.80009e-18)
(22.2962 3.72629 -6.79764e-18)
(22.7915 4.22888 0)
(23.3228 4.68741 -1.12918e-18)
(23.931 5.10661 0)
(24.6445 5.44223 0)
(25.4333 5.64961 -1.06793e-18)
(26.2777 5.68972 1.46382e-18)
(27.1118 5.56473 0)
(27.9268 5.29581 -1.27353e-18)
(28.7388 4.90432 0)
(29.5356 4.38952 -4.29222e-18)
(30.3038 3.73221 4.87169e-18)
(30.9723 2.87278 6.66678e-19)
(31.3771 1.81914 -9.13599e-19)
(31.4142 0.714815 -1.85203e-18)
(31.1344 -0.272301 -1.57288e-18)
(30.6885 -1.04984 0)
(30.1989 -1.62561 -2.97101e-18)
(29.7123 -2.05332 1.3341e-18)
(29.2466 -2.37026 1.224e-18)
(28.8078 -2.6107 -1.2368e-19)
(28.3927 -2.80017 -3.09195e-18)
(27.9958 -2.94288 0)
(27.6129 -3.04226 7.63884e-19)
(27.2458 -3.10165 -6.00905e-19)
(26.8971 -3.12656 6.05077e-19)
(26.567 -3.12233 -8.44777e-19)
(26.2544 -3.09253 3.94634e-19)
(25.958 -3.03925 1.61581e-19)
(25.6773 -2.96383 4.47185e-20)
(25.4126 -2.8669 1.00262e-19)
(25.1644 -2.74876 0)
(24.9352 -2.60918 -1.80658e-19)
(24.7255 -2.44924 0)
(24.547 -2.26814 0)
(24.3808 -2.07739 0)
(21.6148 0.30007 0)
(21.7865 1.00413 1.02677e-18)
(22.0165 1.58748 -4.41386e-18)
(22.2868 2.10707 3.29582e-18)
(22.597 2.58089 1.5361e-18)
(22.9475 3.01938 -8.64487e-19)
(23.3354 3.42535 5.33275e-18)
(23.7517 3.79764 -6.30929e-18)
(24.2254 4.14164 4.33306e-18)
(24.7803 4.42564 -2.47579e-18)
(25.398 4.6155 6.06288e-19)
(26.0651 4.67869 -1.88797e-18)
(26.7306 4.61416 1.88566e-18)
(27.3849 4.439 2.43358e-18)
(28.0395 4.17432 -2.21044e-18)
(28.6878 3.82205 -2.36806e-19)
(29.3271 3.37648 0)
(29.9248 2.7886 -5.89924e-19)
(30.3757 2.02922 4.6878e-18)
(30.5826 1.16248 -4.7785e-18)
(30.5321 0.305045 1.33842e-18)
(30.2949 -0.434846 0)
(29.9619 -1.02364 1.73784e-18)
(29.5891 -1.48543 -1.6148e-18)
(29.2058 -1.8424 8.49457e-19)
(28.8276 -2.11992 -9.62012e-19)
(28.4606 -2.33924 8.05478e-19)
(28.1053 -2.50629 6.90383e-19)
(27.7605 -2.62805 -6.26025e-19)
(27.4279 -2.70958 -9.88779e-19)
(27.1097 -2.75587 9.93781e-19)
(26.8071 -2.77166 -1.10195e-20)
(26.5202 -2.76068 3.07012e-19)
(26.2488 -2.72563 -2.13197e-19)
(25.9931 -2.66849 0)
(25.7535 -2.59076 3.25245e-20)
(25.5309 -2.49375 -8.36737e-20)
(25.327 -2.37853 4.11322e-20)
(25.1423 -2.24701 4.46017e-20)
(24.9839 -2.09978 -2.26317e-20)
(24.8391 -1.94713 -1.16914e-19)
(22.4442 0.236943 -1.5804e-18)
(22.5879 0.814099 -1.04158e-18)
(22.7756 1.28239 -2.22852e-18)
(22.9927 1.69611 2.6101e-18)
(23.2392 2.07279 3.66026e-18)
(23.5147 2.42056 -1.69902e-18)
(23.8177 2.74227 -2.86297e-18)
(24.1418 3.03749 0)
(24.5076 3.31134 -2.06616e-18)
(24.9329 3.5419 9.70834e-19)
(25.4066 3.70502 5.51957e-19)
(25.9205 3.77606 1.06185e-18)
(26.4381 3.75245 -2.91358e-18)
(26.9513 3.64647 2.55447e-18)
(27.4672 3.47575 0)
(27.9821 3.24301 -6.17536e-19)
(28.4967 2.94915 5.23285e-18)
(28.9982 2.55786 -5.07889e-18)
(29.4242 2.03327 -1.73621e-19)
(29.7025 1.39578 6.84406e-18)
(29.7993 0.71145 -7.31678e-18)
(29.7309 0.0704929 0)
(29.5489 -0.4775 -8.45786e-19)
(29.3002 -0.932956 4.24372e-19)
(29.0161 -1.30236 0)
(28.7167 -1.59997 0)
(28.414 -1.84032 -2.3274e-18)
(28.1131 -2.02806 1.77535e-18)
(27.8159 -2.17039 -9.21282e-19)
(27.5256 -2.27281 9.25071e-19)
(27.2451 -2.34012 3.66252e-19)
(26.9764 -2.37668 8.79414e-19)
(26.7207 -2.38623 -1.28198e-18)
(26.4786 -2.37179 3.56263e-19)
(26.2508 -2.33582 -4.93073e-20)
(26.0381 -2.28043 1.30668e-19)
(25.8413 -2.20756 1.28278e-19)
(25.6616 -2.11902 -3.84421e-20)
(25.4993 -2.0171 -3.047e-20)
(25.3585 -1.90292 1.31356e-20)
(25.2311 -1.78542 4.87537e-20)
(23.1388 0.185452 0)
(23.2578 0.654238 -5.62319e-19)
(23.4102 1.02659 -7.89609e-19)
(23.5842 1.35268 6.11031e-18)
(23.7796 1.64874 -4.07091e-18)
(23.9959 1.92082 -1.06144e-18)
(24.2318 2.17156 2.01106e-18)
(24.4832 2.40106 0)
(24.7639 2.61374 6.6237e-19)
(25.0865 2.79489 -6.22736e-19)
(25.4443 2.92833 7.47962e-19)
(25.8326 2.99664 -9.51248e-19)
(26.2267 2.99707 1.50207e-18)
(26.6203 2.9379 3.26956e-18)
(27.018 2.83254 -2.93138e-18)
(27.417 2.68343 -2.87061e-18)
(27.8189 2.49433 2.84428e-18)
(28.2201 2.23967 -3.8744e-22)
(28.5851 1.88862 -4.17508e-18)
(28.8666 1.44257 4.33222e-18)
(29.0326 0.93327 5.02539e-18)
(29.0738 0.422574 -4.85735e-18)
(29.011 -0.0434663 3.31784e-19)
(28.8748 -0.453374 0)
(28.6904 -0.802646 0)
(28.4769 -1.09563 0)
(28.2482 -1.33973 0)
(28.0114 -1.53688 0)
(27.7704 -1.69236 0)
(27.53 -1.81056 0)
(27.2941 -1.89558 -3.00802e-19)
(27.0655 -1.95118 9.40295e-19)
(26.8461 -1.98079 -5.46368e-19)
(26.6374 -1.98741 -3.0641e-19)
(26.4405 -1.97366 -6.65284e-20)
(26.2564 -1.94189 0)
(26.0859 -1.89432 1.14308e-20)
(25.9298 -1.83303 7.0026e-21)
(25.7885 -1.76033 -4.02484e-20)
(25.6642 -1.67745 1.83622e-21)
(25.5519 -1.59193 3.64967e-20)
(23.7099 0.144081 -7.00079e-19)
(23.8071 0.521163 -2.6016e-18)
(23.9302 0.814302 -3.49879e-19)
(24.0692 1.06903 3.17608e-18)
(24.2237 1.29951 4.53102e-18)
(24.393 1.51002 4.79873e-19)
(24.5762 1.70288 -3.69017e-18)
(24.7705 1.87857 1.97392e-18)
(24.9849 2.04065 -2.31609e-18)
(25.2281 2.17945 4.63478e-19)
(25.4958 2.28456 -7.51021e-19)
(25.7853 2.34429 -5.6142e-20)
(26.0804 2.35639 7.72563e-19)
(26.3768 2.32633 -1.62019e-18)
(26.6773 2.26369 2.35415e-18)
(26.9799 2.17038 -2.43665e-18)
(27.2857 2.05044 4.56354e-18)
(27.595 1.88678 -9.20123e-18)
(27.8882 1.65634 4.93583e-18)
(28.1362 1.35452 -6.12506e-18)
(28.3157 0.994583 6.22145e-18)
(28.4102 0.614222 0)
(28.4233 0.247781 0)
(28.3716 -0.091135 0)
(28.2711 -0.393501 8.81157e-20)
(28.1365 -0.657408 -2.81387e-18)
(27.9803 -0.884726 2.63808e-18)
(27.8095 -1.07498 1.45482e-19)
(27.6284 -1.23091 0)
(27.4422 -1.3551 -9.71332e-19)
(27.2554 -1.45033 9.69476e-19)
(27.0713 -1.51941 9.6697e-20)
(26.8924 -1.56511 -8.46287e-20)
(26.7205 -1.59 -5.44319e-19)
(26.5571 -1.59648 6.03827e-19)
(26.4033 -1.58678 0)
(26.2599 -1.56302 -3.53406e-20)
(26.1279 -1.5272 6.25489e-21)
(26.0074 -1.4814 7.5593e-20)
(25.8995 -1.42678 -9.80987e-21)
(25.8018 -1.36938 8.74942e-21)
(24.154 0.112936 6.15408e-19)
(24.2334 0.416158 0)
(24.3328 0.647002 -1.96791e-19)
(24.4442 0.846805 1.36855e-18)
(24.5671 1.02696 1.29689e-18)
(24.7007 1.19035 -2.45934e-18)
(24.8441 1.33904 0)
(24.9953 1.47379 7.43767e-19)
(25.1606 1.59726 3.51428e-19)
(25.3454 1.70314 3.82303e-19)
(25.5471 1.78474 9.79259e-20)
(25.7639 1.83435 6.2422e-19)
(25.9854 1.85041 -6.03022e-19)
(26.2086 1.8366 -1.19194e-18)
(26.4353 1.79976 -8.36911e-19)
(26.6639 1.74125 -8.32397e-19)
(26.8954 1.66462 -8.88815e-19)
(27.1305 1.5581 2.93775e-18)
(27.3584 1.4055 0)
(27.5615 1.20152 4.46144e-18)
(27.7245 0.951191 -4.25477e-18)
(27.8322 0.676669 -4.78261e-18)
(27.8815 0.401176 4.75483e-18)
(27.88 0.135999 0)
(27.8368 -0.109788 -8.0992e-20)
(27.7616 -0.331757 0)
(27.6639 -0.528732 1.43816e-19)
(27.5493 -0.69897 -2.02599e-18)
(27.4216 -0.843304 1.88609e-18)
(27.2855 -0.962717 1.58588e-18)
(27.1452 -1.0587 -1.57781e-18)
(27.0041 -1.13305 -8.77738e-20)
(26.8646 -1.18771 4.10784e-20)
(26.7287 -1.22465 0)
(26.5981 -1.24577 -5.58254e-20)
(26.474 -1.25295 0)
(26.3572 -1.24796 -1.44099e-19)
(26.2485 -1.23252 -2.5113e-21)
(26.1483 -1.20833 9.33227e-20)
(26.0572 -1.1764 0)
(25.974 -1.14138 0)
(24.4846 0.090218 -1.48774e-18)
(24.5503 0.336655 1.41064e-18)
(24.6315 0.520834 4.23503e-19)
(24.7221 0.679866 -1.24747e-18)
(24.8214 0.822707 2.16592e-19)
(24.9285 0.951335 0)
(25.0427 1.06757 -2.66692e-18)
(25.1627 1.1723 1.99872e-18)
(25.2924 1.26752 4.29754e-19)
(25.4358 1.34901 -6.53417e-19)
(25.5908 1.41243 2.99852e-19)
(25.7564 1.4526 -2.96148e-19)
(25.9254 1.46852 1.17308e-18)
(26.096 1.46271 -1.00429e-18)
(26.2692 1.44011 3.19427e-19)
(26.4438 1.40175 -3.21891e-19)
(26.6204 1.35059 4.5009e-18)
(26.8 1.27855 -1.56394e-18)
(26.9762 1.17434 -5.28803e-18)
(27.138 1.03352 2.7032e-18)
(27.2755 0.857791 -5.95333e-20)
(27.377 0.660417 0)
(27.4376 0.45665 -3.57296e-18)
(27.4606 0.254665 3.5434e-18)
(27.4507 0.0618612 3.42149e-18)
(27.414 -0.117084 -3.44596e-18)
(27.3569 -0.279841 1.58062e-18)
(27.2838 -0.424323 -1.58116e-18)
(27.1974 -0.550298 0)
(27.1015 -0.657754 -1.28781e-18)
(26.9998 -0.747247 1.28693e-18)
(26.8951 -0.819761 1.06203e-18)
(26.7897 -0.876523 -1.50434e-18)
(26.6854 -0.918885 4.72173e-19)
(26.5838 -0.948246 5.93212e-21)
(26.4861 -0.966018 3.19724e-19)
(26.3931 -0.973594 -4.58509e-19)
(26.3056 -0.972316 1.37494e-19)
(26.224 -0.963531 4.90859e-20)
(26.1487 -0.948048 -2.85611e-20)
(26.0793 -0.929302 -2.46514e-20)
(24.7348 0.0732241 0)
(24.7898 0.275421 -4.55014e-19)
(24.8568 0.424175 -1.08465e-19)
(24.9313 0.552391 -1.69735e-18)
(25.0126 0.667104 8.15603e-19)
(25.0998 0.769684 2.36887e-18)
(25.1922 0.861749 -4.36622e-18)
(25.2888 0.944199 2.02447e-18)
(25.3925 1.01857 4.79051e-19)
(25.5057 1.08198 -1.68874e-18)
(25.627 1.13157 6.305e-19)
(25.7558 1.1638 2.22388e-19)
(25.887 1.17806 -1.22755e-19)
(26.0193 1.17616 1.4446e-19)
(26.1535 1.16168 -1.76665e-18)
(26.2885 1.13541 2.33144e-18)
(26.4247 1.09971 2.75363e-18)
(26.5629 1.04902 -6.42434e-18)
(26.6992 0.975478 5.53539e-18)
(26.8266 0.875747 -2.01649e-18)
(26.9387 0.750258 -2.44884e-18)
(27.0267 0.607272 5.13803e-18)
(27.0862 0.456855 8.90589e-20)
(27.1185 0.304637 -2.53058e-18)
(27.1259 0.156129 4.63912e-20)
(27.1121 0.0153359 -7.28498e-20)
(27.0814 -0.115309 -2.46042e-20)
(27.0368 -0.233817 1.16704e-18)
(26.9803 -0.339516 -2.25518e-18)
(26.9147 -0.431919 1.08901e-18)
(26.8428 -0.511046 -8.32785e-21)
(26.7671 -0.577328 -1.31728e-20)
(26.6893 -0.631465 6.884e-21)
(26.6112 -0.674315 -3.45937e-19)
(26.5339 -0.706835 3.48569e-19)
(26.4587 -0.73003 2.96095e-19)
(26.3862 -0.744921 -2.82366e-19)
(26.3172 -0.75251 0)
(26.252 -0.753806 0)
(26.1911 -0.749438 1.10247e-20)
(26.1345 -0.741853 4.40162e-21)
(24.9276 0.0601841 0)
(24.974 0.227383 2.16203e-18)
(25.0298 0.348803 2.53757e-18)
(25.0916 0.453311 -2.53666e-18)
(25.1589 0.546441 2.04626e-18)
(25.2306 0.629166 -2.04374e-18)
(25.3063 0.702917 -7.60416e-19)
(25.3851 0.768556 1.24765e-18)
(25.469 0.827274 -4.33958e-19)
(25.5598 0.877096 0)
(25.6562 0.916087 1.14356e-19)
(25.7579 0.94183 0)
(25.8612 0.953962 4.0134e-19)
(25.9652 0.953802 -4.97509e-19)
(26.0704 0.944002 0)
(26.176 0.925183 -2.14762e-19)
(26.2821 0.899196 0)
(26.3893 0.862164 2.23786e-18)
(26.4952 0.808633 -2.52423e-18)
(26.5952 0.736201 0)
(26.685 0.644881 0)
(26.7582 0.54006 -1.3125e-19)
(26.8114 0.428506 -1.82701e-18)
(26.845 0.314035 1.8445e-18)
(26.8602 0.200596 -1.94762e-18)
(26.859 0.0913369 2.00133e-18)
(26.8445 -0.0116115 3.31738e-20)
(26.8187 -0.106617 0)
(26.7828 -0.192913 0)
(26.739 -0.269859 -8.04329e-19)
(26.6893 -0.337217 7.52177e-19)
(26.6356 -0.395101 1.22688e-20)
(26.5793 -0.443865 0)
(26.5218 -0.484022 2.56686e-20)
(26.4642 -0.516192 0)
(26.4073 -0.541058 -8.36294e-21)
(26.3518 -0.559338 -2.19045e-19)
(26.2984 -0.57175 1.43887e-19)
(26.2474 -0.579025 7.48927e-20)
(26.1991 -0.581636 -1.02168e-20)
(26.1538 -0.581257 -8.8434e-21)
(25.0787 0.0499804 -5.5897e-19)
(25.1179 0.189127 -3.04016e-19)
(25.1647 0.289122 -1.48229e-18)
(25.2164 0.375083 0)
(25.2726 0.451375 0)
(25.3322 0.51871 0)
(25.3947 0.578352 7.03348e-19)
(25.4597 0.631098 -2.3993e-18)
(25.5284 0.67789 1.1085e-18)
(25.602 0.717356 1.45579e-18)
(25.6796 0.74819 -4.63411e-19)
(25.7609 0.768717 7.48581e-20)
(25.8433 0.778745 -7.51138e-20)
(25.926 0.779265 6.26213e-19)
(26.0094 0.772258 -6.364e-19)
(26.0928 0.758222 0)
(26.1762 0.738601 1.38684e-18)
(26.2601 0.710676 -1.42616e-18)
(26.3428 0.670641 -2.12338e-18)
(26.4213 0.61682 4.48811e-18)
(26.4927 0.549124 5.11677e-19)
(26.5524 0.471233 -3.9413e-18)
(26.5977 0.387812 -1.64734e-19)
(26.6289 0.301462 2.86036e-18)
(26.6464 0.214969 -1.43556e-18)
(26.6516 0.130704 0)
(26.6466 0.0503809 8.09496e-20)
(26.6326 -0.0247435 0)
(26.6105 -0.0939726 -7.63593e-20)
(26.5818 -0.156683 0)
(26.548 -0.212556 4.16955e-20)
(26.5104 -0.261546 6.57313e-20)
(26.4703 -0.303804 5.16483e-19)
(26.4286 -0.339619 -5.45104e-19)
(26.3862 -0.369379 0)
(26.3438 -0.393532 0)
(26.302 -0.412568 -2.28005e-20)
(26.2613 -0.426986 6.13331e-20)
(26.222 -0.437305 -1.3938e-19)
(26.1843 -0.443874 7.57789e-20)
(26.1487 -0.447783 2.38662e-20)
(25.1985 0.0418698 -3.73401e-19)
(25.2319 0.158303 8.56842e-19)
(25.2712 0.241291 -1.31836e-18)
(25.3148 0.312549 1.66993e-19)
(25.362 0.375533 0)
(25.4119 0.430784 1.04258e-18)
(25.4641 0.479412 -2.09407e-18)
(25.5181 0.522142 7.58949e-20)
(25.5748 0.559727 7.46374e-19)
(25.6351 0.591215 -1.36818e-18)
(25.6983 0.615723 0)
(25.764 0.632083 3.22603e-20)
(25.8303 0.640218 0)
(25.8967 0.640886 0)
(25.9634 0.635587 0)
(26.0299 0.624725 0)
(26.0961 0.60943 1.27934e-18)
(26.1623 0.587786 -1.13624e-18)
(26.2273 0.557126 0)
(26.2891 0.516305 0)
(26.3457 0.465245 1.43563e-18)
(26.3939 0.406566 -1.88577e-18)
(26.4315 0.343564 1.9893e-18)
(26.4588 0.278035 -2.08464e-18)
(26.476 0.211944 0)
(26.484 0.147041 9.59421e-19)
(26.4841 0.0846499 -2.2797e-18)
(26.4773 0.0257013 1.05739e-18)
(26.4642 -0.0292334 1.30736e-20)
(26.4457 -0.0796213 0)
(26.423 -0.12515 -5.37952e-20)
(26.397 -0.165712 -1.00834e-20)
(26.3687 -0.201351 0)
(26.3388 -0.232221 -4.56854e-20)
(26.308 -0.258558 0)
(26.2767 -0.280651 0)
(26.2456 -0.298829 2.12304e-20)
(26.2149 -0.313433 -3.45681e-20)
(26.185 -0.324824 6.50693e-20)
(26.156 -0.333258 -5.14037e-21)
(26.1284 -0.33941 -4.37913e-20)
(25.2946 0.0353377 0)
(25.323 0.133221 0)
(25.3564 0.202557 1.21362e-18)
(25.3933 0.262024 6.13664e-20)
(25.4332 0.31437 0)
(25.4752 0.360017 9.50403e-19)
(25.5191 0.399944 6.75363e-19)
(25.5643 0.434799 -1.6373e-18)
(25.6115 0.465196 3.9464e-19)
(25.6613 0.490473 -6.99636e-19)
(25.7132 0.510038 -1.00885e-19)
(25.7667 0.523078 -3.01267e-20)
(25.8206 0.52959 0)
(25.8744 0.530167 -1.13591e-19)
(25.9282 0.525954 0)
(25.9816 0.517289 0)
(26.0345 0.505056 -1.00917e-18)
(26.0871 0.487901 8.40085e-19)
(26.1386 0.463954 0)
(26.1874 0.432444 0)
(26.2324 0.393331 -1.36412e-18)
(26.271 0.348547 2.88989e-18)
(26.3018 0.300475 -2.93559e-18)
(26.325 0.250375 1.45748e-18)
(26.3407 0.199642 0)
(26.3494 0.14956 2.06229e-19)
(26.3522 0.101128 1.48588e-19)
(26.3496 0.0550206 0)
(26.3421 0.0116828 -7.13975e-19)
(26.3304 -0.0284602 8.46377e-19)
(26.3153 -0.0651395 1.32979e-19)
(26.2975 -0.0982356 -4.77713e-20)
(26.2777 -0.127742 -3.78325e-20)
(26.2564 -0.153737 4.25958e-20)
(26.2341 -0.176361 0)
(26.2113 -0.195801 3.19787e-20)
(26.1882 -0.212274 0)
(26.1653 -0.226012 1.76829e-19)
(26.1428 -0.237265 -1.15397e-19)
(26.1208 -0.24622 -2.37523e-21)
(26.0995 -0.253269 -2.45731e-20)
(25.3725 0.0300182 4.89702e-19)
(25.3967 0.11264 2.24137e-19)
(25.4251 0.170916 -1.22222e-18)
(25.4565 0.220832 3.29467e-18)
(25.4904 0.26459 -1.58202e-18)
(25.526 0.302531 6.21938e-19)
(25.563 0.335514 6.42036e-19)
(25.6011 0.364117 5.46016e-19)
(25.6407 0.388844 4.33604e-19)
(25.6822 0.409243 3.01075e-19)
(25.725 0.424921 -2.03027e-19)
(25.7691 0.435317 -2.70829e-20)
(25.8132 0.440474 -2.76732e-20)
(25.8571 0.440864 6.78952e-19)
(25.9008 0.437372 -4.97327e-19)
(25.944 0.430282 9.8833e-19)
(25.9865 0.420294 -8.46986e-19)
(26.0286 0.406449 0)
(26.0696 0.387433 9.04178e-20)
(26.1084 0.362737 -9.54935e-19)
(26.1441 0.332364 9.74973e-19)
(26.1751 0.297773 -8.68399e-19)
(26.2001 0.260723 2.13579e-18)
(26.2194 0.222111 -1.06855e-18)
(26.2331 0.18294 0)
(26.2416 0.144148 -8.56738e-20)
(26.2455 0.106484 -8.55455e-20)
(26.2453 0.0704322 0)
(26.2414 0.0363262 -5.85073e-19)
(26.2341 0.00449333 5.64582e-19)
(26.2242 -0.0248507 -7.72239e-20)
(26.212 -0.0515976 0)
(26.1982 -0.0757218 3.52824e-20)