/*--------------------------------*- C++ -*----------------------------------*\
  =========                 |
  \\      /  F ield         | OpenFOAM: The Open Source CFD Toolbox
   \\    /   O peration     | Website:  https://openfoam.org
    \\  /    A nd           | Version:  11
     \\/     M anipulation  |
\*---------------------------------------------------------------------------*/
FoamFile
{
    format      ascii;
    class       volScalarField;
    location    "450";
    object      nut;
}
// * * * * * * * * * * * * * * * * * * * * * * * * * * * * * * * * * * * * * //

dimensions      [0 2 -1 0 0 0 0];

internalField   nonuniform List<scalar> 
11040
(
0.0017571
0.00179812
0.00194143
0.00251817
0.0029501
0.00326366
0.00343882
0.00335199
0.00319614
0.00309612
0.00307381
0.00318466
0.00341001
0.00368135
0.00372384
0.00349322
0.00285155
0.0024067
0.00222908
0.00216461
0.00212906
0.00209085
0.00205787
0.00203643
0.00203131
0.00201642
0.00196948
0.00193202
0.00190294
0.00188195
0.00186256
0.00184279
0.00182285
0.00180217
0.00177953
0.00175385
0.00172284
0.00168644
0.00163209
0.00158646
0.00132515
0.00812245
0.00820778
0.00814253
0.00789788
0.00762634
0.00719409
0.00655593
0.00565943
0.0049411
0.00446219
0.00415834
0.00411646
0.00412839
0.00404701
0.00370913
0.00384597
0.00403333
0.00419572
0.00428442
0.00417419
0.00392884
0.00366753
0.00345784
0.00330424
0.00318873
0.00307887
0.00303258
0.00300853
0.00297087
0.0029268
0.00288822
0.00285906
0.00283804
0.00282332
0.00281404
0.0028096
0.00281089
0.00281609
0.00283127
0.0028556
0.00273054
0.0169308
0.0171037
0.017084
0.0167061
0.0162245
0.0154559
0.0143315
0.0126894
0.0112424
0.0101791
0.00944477
0.00922729
0.00916376
0.00895806
0.00817117
0.00707452
0.005783
0.00561147
0.00579058
0.00602402
0.006173
0.00619304
0.00613358
0.00604969
0.005969
0.00583315
0.00563536
0.00553685
0.00547798
0.00543474
0.00539714
0.00536068
0.00532446
0.0052884
0.00525252
0.00521522
0.00517645
0.00512665
0.00507721
0.00500458
0.00461492
0.0273863
0.0276432
0.0276234
0.027125
0.0264101
0.0252933
0.0236677
0.0213325
0.0191014
0.0174069
0.0162285
0.0157924
0.0156148
0.0152292
0.0140548
0.0123147
0.00991348
0.00836669
0.00754037
0.00753373
0.00767386
0.00775231
0.00780717
0.00784429
0.00786098
0.00780903
0.00768043
0.00760177
0.00755423
0.00752537
0.00750676
0.00749251
0.00747962
0.00746623
0.00745107
0.00743178
0.00740743
0.0073686
0.00731575
0.00726184
0.00677621
0.0389739
0.0393054
0.0392841
0.0387031
0.0377997
0.0364054
0.0343799
0.0314951
0.0285405
0.0262115
0.0245718
0.0238634
0.023516
0.0229178
0.0213024
0.0189394
0.0155583
0.0129796
0.0113617
0.0103435
0.00970945
0.00939568
0.00943571
0.00951879
0.00956297
0.00954167
0.00946976
0.0094464
0.00944315
0.0094475
0.00945739
0.00947129
0.00948694
0.00950163
0.00951325
0.00951904
0.00951723
0.00949991
0.0094597
0.00943147
0.00897261
0.0511465
0.0515333
0.0515099
0.0508902
0.0498685
0.0483027
0.0460293
0.0427499
0.0391554
0.0363152
0.0342941
0.0333072
0.0327524
0.0319198
0.029895
0.0268977
0.0224053
0.0186643
0.0162604
0.0147061
0.0136186
0.0128444
0.0123115
0.0119355
0.0116605
0.0115
0.0114321
0.0114284
0.0114227
0.0114218
0.0114366
0.0114643
0.0114965
0.0115275
0.0115555
0.0115782
0.0115932
0.0115933
0.0115666
0.0115555
0.0111506
0.0633343
0.0637505
0.063727
0.0631112
0.0620529
0.0604375
0.0580792
0.0546513
0.0507805
0.0475219
0.0451607
0.0439179
0.0431356
0.0420591
0.0396881
0.0359636
0.0305404
0.0257458
0.0224599
0.020249
0.0187173
0.0176318
0.0168304
0.0162137
0.0157543
0.0152974
0.0147682
0.01435
0.0140295
0.0138861
0.0138508
0.01385
0.0138498
0.01385
0.013857
0.0138674
0.0138742
0.0138677
0.0138332
0.0138166
0.0134291
0.0749963
0.0754136
0.0753937
0.0748171
0.0737989
0.0722491
0.0699404
0.0666909
0.0629125
0.0595324
0.0569162
0.0553907
0.0543611
0.0530441
0.0503132
0.0461772
0.0401602
0.0345377
0.030423
0.0275109
0.0254084
0.0238886
0.0227671
0.0218943
0.0212261
0.0205752
0.0198045
0.0191463
0.0185941
0.0181297
0.0177398
0.0174063
0.0171262
0.0169583
0.0168853
0.01684
0.0167913
0.0167287
0.0166398
0.0165776
0.0161314
0.0856897
0.0860828
0.0860674
0.0855558
0.084636
0.083241
0.0811497
0.0782777
0.0748616
0.0716438
0.0689932
0.0672356
0.065978
0.0644166
0.0615477
0.0573125
0.0511143
0.0449914
0.0401871
0.0365988
0.0338925
0.0318789
0.0303784
0.0292041
0.0282883
0.0274191
0.0264319
0.0255677
0.0248279
0.0241816
0.0236066
0.0230858
0.0226046
0.0221572
0.0217414
0.0213502
0.0210008
0.0207286
0.0205006
0.0203391
0.0197586
0.0951284
0.0954789
0.0954677
0.0950336
0.0942449
0.093054
0.0912762
0.0888799
0.0859841
0.0831376
0.0806596
0.0788399
0.0774016
0.0757246
0.0729222
0.0688756
0.0629282
0.056722
0.0514373
0.0472968
0.0440406
0.0415451
0.039651
0.0381514
0.0369605
0.0358526
0.0346471
0.0335772
0.0326488
0.0318306
0.0310961
0.0304245
0.0297993
0.0292063
0.0286342
0.0280724
0.0275119
0.0269492
0.0263722
0.0258918
0.025013
0.103202
0.103501
0.103492
0.103137
0.102487
0.10151
0.100068
0.0981557
0.095824
0.0934476
0.0912837
0.0895619
0.0881092
0.0864515
0.0838785
0.0802462
0.074922
0.0689895
0.0635833
0.0590707
0.055416
0.0525698
0.0503496
0.048553
0.0470946
0.0457543
0.0443485
0.043088
0.0419801
0.0409955
0.0401066
0.0392911
0.0385311
0.0378111
0.037118
0.03644
0.0357645
0.0350812
0.0343624
0.0337071
0.0325092
0.10995
0.110195
0.110189
0.109904
0.109383
0.108604
0.10747
0.105989
0.104178
0.102256
0.10047
0.0989605
0.0976212
0.0961073
0.0938838
0.090816
0.0863066
0.0810964
0.076051
0.0715511
0.0676984
0.0645609
0.062064
0.0600224
0.0583462
0.0568232
0.0552781
0.0538767
0.052625
0.0515001
0.0504771
0.049535
0.0486561
0.0478255
0.0470297
0.0462562
0.0454927
0.0447297
0.0439415
0.0432185
0.0419646
0.115506
0.115702
0.115697
0.115472
0.11506
0.114449
0.113572
0.112445
0.111065
0.109572
0.108129
0.106873
0.10572
0.104422
0.102596
0.100133
0.0965443
0.0923037
0.0879954
0.0838766
0.0801672
0.0770198
0.0744222
0.0722424
0.0704124
0.0687504
0.067092
0.0655795
0.0642186
0.0629914
0.0618738
0.0608444
0.0598845
0.0589849
0.0581248
0.0572914
0.056474
0.0556643
0.0548427
0.054085
0.0528737
0.120043
0.120197
0.120193
0.120017
0.119693
0.119217
0.118544
0.117691
0.11664
0.115507
0.114389
0.113367
0.112416
0.111351
0.109908
0.107982
0.105266
0.102034
0.0985906
0.0951508
0.0918898
0.0890016
0.0865381
0.0844271
0.082607
0.080937
0.0792838
0.0777618
0.0763762
0.0751136
0.0739556
0.0728842
0.0718839
0.0709411
0.070044
0.069182
0.068345
0.067525
0.0667111
0.065957
0.0648379
0.123735
0.123856
0.123852
0.123715
0.123461
0.12309
0.122575
0.12193
0.121142
0.120289
0.119431
0.118622
0.117855
0.117002
0.115887
0.114429
0.112435
0.110057
0.107478
0.104822
0.102182
0.0997638
0.0976268
0.0957292
0.0940552
0.0925082
0.0909878
0.0895765
0.0882757
0.0870769
0.0859741
0.0849472
0.0839836
0.0830728
0.0822058
0.0813744
0.0805709
0.0797893
0.0790189
0.0783023
0.0773133
0.12674
0.126834
0.126832
0.126724
0.126524
0.126235
0.12584
0.125351
0.124766
0.124118
0.123459
0.122825
0.122214
0.121543
0.120693
0.119608
0.118172
0.11647
0.114616
0.112658
0.110663
0.108771
0.107056
0.105498
0.104101
0.102794
0.101507
0.1003
0.0991745
0.098127
0.0971506
0.0962366
0.0953762
0.0945677
0.0937984
0.0930613
0.0923509
0.0916629
0.0909902
0.0903619
0.0895454
0.129194
0.129268
0.129266
0.129181
0.129023
0.128795
0.128497
0.12812
0.127672
0.127179
0.126673
0.12618
0.125701
0.125177
0.124534
0.123733
0.122707
0.121505
0.120199
0.118807
0.117371
0.115969
0.114669
0.113475
0.11238
0.111347
0.110332
0.109379
0.108485
0.107644
0.106855
0.10611
0.105407
0.10474
0.104105
0.103497
0.102918
0.102361
0.101819
0.101312
0.100688
0.131117
0.131176
0.131175
0.131107
0.13098
0.130797
0.13056
0.130265
0.129918
0.129536
0.129143
0.128761
0.128382
0.127971
0.127477
0.126875
0.126125
0.12526
0.124329
0.123336
0.1223
0.12128
0.120323
0.119427
0.118595
0.117808
0.117041
0.116313
0.115626
0.114978
0.114366
0.113787
0.113244
0.112729
0.112238
0.11177
0.111321
0.110891
0.110478
0.110093
0.109641
0.132573
0.132621
0.132621
0.132565
0.132461
0.132311
0.132119
0.131882
0.131606
0.131304
0.130991
0.130685
0.130383
0.130053
0.129664
0.129199
0.128634
0.127992
0.1273
0.12657
0.125809
0.125058
0.12434
0.123663
0.123036
0.12244
0.121859
0.121306
0.120787
0.120296
0.119832
0.119394
0.118978
0.118585
0.118213
0.11786
0.117523
0.117201
0.116892
0.116605
0.116282
0.133702
0.133743
0.133743
0.133697
0.133609
0.133484
0.133324
0.133133
0.132907
0.132663
0.13241
0.132161
0.13191
0.131638
0.131323
0.130956
0.130519
0.130029
0.129503
0.128953
0.12838
0.127815
0.127272
0.126757
0.126274
0.125815
0.125372
0.124952
0.124554
0.124178
0.123823
0.12349
0.123175
0.122878
0.122596
0.122327
0.122074
0.121834
0.121605
0.121393
0.121162
0.134602
0.134637
0.134637
0.134598
0.134524
0.134417
0.134282
0.134121
0.133933
0.133732
0.133522
0.133314
0.133103
0.132879
0.132621
0.132324
0.131977
0.131594
0.131187
0.130763
0.130322
0.129889
0.129471
0.129071
0.128695
0.12834
0.127996
0.12767
0.127361
0.127073
0.1268
0.126543
0.126303
0.126077
0.125861
0.125656
0.125463
0.125283
0.125113
0.124956
0.124789
0.135335
0.135365
0.135365
0.135332
0.135268
0.135176
0.13506
0.134923
0.134767
0.134599
0.134423
0.134245
0.134063
0.133873
0.133656
0.133415
0.133136
0.13283
0.132507
0.132174
0.13183
0.131488
0.131162
0.130849
0.130554
0.130274
0.130005
0.129752
0.129511
0.129284
0.129071
0.128872
0.128687
0.128513
0.128347
0.12819
0.128042
0.127903
0.127773
0.127654
0.127534
0.135942
0.135968
0.135968
0.135939
0.135883
0.135804
0.135704
0.135586
0.135451
0.135307
0.135156
0.135003
0.134847
0.134684
0.134502
0.134302
0.134073
0.133825
0.133567
0.133301
0.133027
0.132756
0.132497
0.132249
0.132015
0.131793
0.131579
0.131379
0.131191
0.131012
0.130844
0.130686
0.130539
0.130404
0.130275
0.130153
0.130039
0.129932
0.129831
0.129739
0.129648
0.136451
0.136474
0.136475
0.136449
0.1364
0.136331
0.136244
0.136141
0.136024
0.135899
0.135769
0.135636
0.135501
0.13536
0.135207
0.135039
0.134848
0.134644
0.134433
0.134217
0.133996
0.133779
0.133572
0.133372
0.133184
0.133006
0.132835
0.132676
0.132526
0.132384
0.13225
0.132124
0.132007
0.131898
0.131797
0.131702
0.131613
0.131529
0.131451
0.13138
0.131311
0.136884
0.136904
0.136905
0.136882
0.136839
0.136778
0.136702
0.136612
0.13651
0.136401
0.136287
0.136171
0.136053
0.135931
0.135799
0.135656
0.135496
0.135326
0.135152
0.134974
0.134793
0.134617
0.134449
0.134287
0.134134
0.13399
0.133852
0.133724
0.133603
0.133488
0.133381
0.13328
0.133187
0.133099
0.133019
0.132944
0.132874
0.132809
0.132748
0.132692
0.13264
0.137256
0.137274
0.137274
0.137254
0.137216
0.137162
0.137094
0.137015
0.136926
0.13683
0.13673
0.136628
0.136525
0.136418
0.136304
0.136181
0.136045
0.135904
0.135758
0.135611
0.135462
0.135317
0.135178
0.135046
0.134921
0.134803
0.134691
0.134586
0.134488
0.134396
0.134309
0.134228
0.134152
0.134082
0.134017
0.133958
0.133902
0.133851
0.133803
0.133759
0.133718
0.137577
0.137593
0.137594
0.137576
0.137542
0.137494
0.137434
0.137364
0.137285
0.137201
0.137112
0.137022
0.136931
0.136837
0.136738
0.136631
0.136517
0.136397
0.136274
0.13615
0.136027
0.135907
0.135792
0.135683
0.13558
0.135484
0.135392
0.135308
0.135227
0.135152
0.135081
0.135015
0.134953
0.134896
0.134843
0.134795
0.13475
0.134709
0.134671
0.134636
0.134604
0.137858
0.137872
0.137873
0.137857
0.137827
0.137784
0.13773
0.137668
0.137598
0.137523
0.137445
0.137365
0.137284
0.137201
0.137114
0.137022
0.136924
0.136821
0.136717
0.136612
0.136509
0.136408
0.136312
0.136221
0.136136
0.136056
0.135981
0.135911
0.135845
0.135782
0.135724
0.13567
0.13562
0.135573
0.13553
0.13549
0.135454
0.135421
0.135391
0.135363
0.135338
0.138104
0.138117
0.138118
0.138104
0.138076
0.138038
0.13799
0.137934
0.137872
0.137805
0.137736
0.137665
0.137593
0.13752
0.137442
0.137362
0.137277
0.137189
0.1371
0.137011
0.136924
0.136839
0.136759
0.136682
0.136612
0.136546
0.136483
0.136425
0.136369
0.136318
0.136269
0.136224
0.136183
0.136145
0.136109
0.136077
0.136047
0.13602
0.135996
0.135973
0.135954
0.138322
0.138333
0.138334
0.138321
0.138297
0.138262
0.138219
0.138169
0.138114
0.138054
0.137992
0.137929
0.137865
0.137799
0.137731
0.137661
0.137587
0.13751
0.137434
0.137359
0.137284
0.137213
0.137145
0.137081
0.137022
0.136966
0.136913
0.136864
0.136817
0.136773
0.136733
0.136697
0.136662
0.136631
0.136602
0.136575
0.136551
0.136529
0.13651
0.136492
0.136477
0.138515
0.138525
0.138526
0.138514
0.138492
0.138461
0.138422
0.138378
0.138328
0.138275
0.138219
0.138162
0.138105
0.138047
0.137986
0.137924
0.137859
0.137794
0.137728
0.137663
0.1376
0.137539
0.137482
0.137428
0.137378
0.137331
0.137287
0.137245
0.137205
0.137169
0.137136
0.137105
0.137076
0.13705
0.137026
0.137004
0.136984
0.136966
0.13695
0.136936
0.136923
0.138686
0.138696
0.138696
0.138686
0.138666
0.138638
0.138603
0.138563
0.138518
0.138471
0.138421
0.13837
0.138319
0.138267
0.138213
0.138158
0.138102
0.138045
0.137987
0.137932
0.137878
0.137826
0.137777
0.137733
0.13769
0.13765
0.137612
0.137577
0.137543
0.137513
0.137485
0.137459
0.137435
0.137413
0.137393
0.137375
0.137358
0.137343
0.13733
0.137318
0.137308
0.13884
0.138849
0.138849
0.13884
0.138822
0.138797
0.138765
0.138729
0.138689
0.138646
0.138601
0.138556
0.13851
0.138463
0.138415
0.138367
0.138317
0.138267
0.138217
0.13817
0.138124
0.13808
0.138039
0.138001
0.137964
0.13793
0.137897
0.137866
0.137838
0.137812
0.137788
0.137766
0.137746
0.137727
0.13771
0.137695
0.137681
0.137668
0.137657
0.137647
0.137639
0.138978
0.138986
0.138986
0.138978
0.138962
0.138939
0.13891
0.138878
0.138842
0.138803
0.138763
0.138722
0.138681
0.138639
0.138596
0.138553
0.138509
0.138465
0.138423
0.138382
0.138342
0.138305
0.138269
0.138235
0.138204
0.138174
0.138145
0.138119
0.138095
0.138073
0.138052
0.138033
0.138016
0.138
0.137986
0.137973
0.137961
0.137951
0.137941
0.137933
0.137927
0.139102
0.139109
0.13911
0.139102
0.139087
0.139067
0.139041
0.139012
0.138979
0.138945
0.138909
0.138872
0.138835
0.138797
0.138759
0.138721
0.138682
0.138643
0.138606
0.13857
0.138535
0.138502
0.138471
0.138442
0.138415
0.138389
0.138364
0.138342
0.138321
0.138302
0.138285
0.138269
0.138254
0.13824
0.138228
0.138217
0.138207
0.138199
0.138191
0.138184
0.138179
0.139214
0.139221
0.139221
0.139214
0.139201
0.139182
0.139159
0.139133
0.139103
0.139072
0.13904
0.139007
0.138974
0.13894
0.138906
0.138872
0.138837
0.138803
0.13877
0.138739
0.138708
0.13868
0.138652
0.138627
0.138603
0.138581
0.13856
0.13854
0.138523
0.138506
0.138491
0.138477
0.138465
0.138453
0.138443
0.138434
0.138425
0.138418
0.138411
0.138406
0.138401
0.139315
0.139321
0.139322
0.139316
0.139304
0.139287
0.139266
0.139242
0.139216
0.139188
0.139159
0.139129
0.139099
0.139069
0.139039
0.139008
0.138978
0.138948
0.138919
0.138891
0.138864
0.138839
0.138815
0.138793
0.138772
0.138753
0.138735
0.138718
0.138703
0.138689
0.138676
0.138664
0.138653
0.138643
0.138634
0.138626
0.138619
0.138613
0.138607
0.138603
0.138599
0.139407
0.139413
0.139413
0.139408
0.139397
0.139382
0.139363
0.139342
0.139318
0.139293
0.139267
0.13924
0.139213
0.139186
0.139159
0.139132
0.139105
0.139079
0.139053
0.139028
0.139005
0.138983
0.138962
0.138943
0.138925
0.138908
0.138892
0.138878
0.138864
0.138852
0.138841
0.13883
0.138821
0.138813
0.138805
0.138798
0.138792
0.138787
0.138782
0.138778
0.138775
0.139491
0.139496
0.139496
0.139491
0.139482
0.139468
0.139451
0.139432
0.139411
0.139388
0.139365
0.139341
0.139317
0.139293
0.139269
0.139245
0.139221
0.139197
0.139175
0.139153
0.139133
0.139114
0.139095
0.139078
0.139063
0.139048
0.139034
0.139022
0.13901
0.138999
0.138989
0.13898
0.138972
0.138965
0.138958
0.138953
0.138947
0.138943
0.138939
0.138935
0.138932
0.139567
0.139572
0.139572
0.139568
0.139559
0.139547
0.139532
0.139515
0.139496
0.139476
0.139455
0.139434
0.139412
0.139391
0.139369
0.139348
0.139327
0.139306
0.139286
0.139267
0.139249
0.139232
0.139216
0.139202
0.139188
0.139175
0.139163
0.139152
0.139141
0.139132
0.139124
0.139116
0.139109
0.139102
0.139097
0.139091
0.139087
0.139083
0.139079
0.139076
0.139074
0.139636
0.139641
0.139641
0.139637
0.139629
0.139618
0.139605
0.13959
0.139573
0.139555
0.139537
0.139518
0.139499
0.13948
0.139461
0.139442
0.139423
0.139405
0.139388
0.139371
0.139355
0.13934
0.139326
0.139313
0.139301
0.13929
0.13928
0.13927
0.139261
0.139253
0.139245
0.139238
0.139232
0.139227
0.139222
0.139217
0.139213
0.13921
0.139207
0.139204
0.139202
0.1397
0.139703
0.139704
0.1397
0.139693
0.139684
0.139672
0.139659
0.139644
0.139629
0.139612
0.139596
0.139579
0.139562
0.139545
0.139529
0.139512
0.139496
0.139481
0.139466
0.139453
0.139439
0.139427
0.139416
0.139405
0.139396
0.139386
0.139378
0.13937
0.139363
0.139356
0.13935
0.139345
0.13934
0.139336
0.139332
0.139328
0.139325
0.139322
0.13932
0.139318
0.139758
0.139761
0.139761
0.139758
0.139752
0.139744
0.139734
0.139722
0.13971
0.139696
0.139682
0.139667
0.139653
0.139638
0.139623
0.139609
0.139595
0.139581
0.139567
0.139554
0.139542
0.139531
0.13952
0.13951
0.139501
0.139493
0.139484
0.139477
0.13947
0.139464
0.139458
0.139453
0.139448
0.139444
0.13944
0.139436
0.139433
0.13943
0.139428
0.139426
0.139424
0.139811
0.139814
0.139814
0.139811
0.139806
0.139799
0.139791
0.139781
0.13977
0.139758
0.139746
0.139734
0.139721
0.139709
0.139696
0.139683
0.139671
0.139659
0.139647
0.139636
0.139626
0.139616
0.139607
0.139598
0.13959
0.139582
0.139575
0.139569
0.139563
0.139557
0.139552
0.139547
0.139543
0.139539
0.139536
0.139533
0.13953
0.139528
0.139525
0.139523
0.139522
0.139859
0.139862
0.139862
0.13986
0.139855
0.13985
0.139843
0.139835
0.139826
0.139817
0.139807
0.139796
0.139786
0.139775
0.139764
0.139754
0.139743
0.139733
0.139723
0.139714
0.139705
0.139696
0.139688
0.139681
0.139674
0.139667
0.139661
0.139655
0.13965
0.139645
0.13964
0.139636
0.139632
0.139629
0.139626
0.139623
0.139621
0.139618
0.139616
0.139615
0.139613
0.139904
0.139906
0.139906
0.139904
0.139901
0.139897
0.139891
0.139885
0.139879
0.139871
0.139864
0.139855
0.139847
0.139839
0.13983
0.139821
0.139813
0.139805
0.139796
0.139789
0.139781
0.139774
0.139767
0.139761
0.139755
0.139749
0.139744
0.139739
0.139734
0.13973
0.139726
0.139722
0.139719
0.139716
0.139713
0.139711
0.139708
0.139706
0.139705
0.139703
0.139701
0.139945
0.139946
0.139946
0.139945
0.139943
0.13994
0.139937
0.139933
0.139928
0.139924
0.139918
0.139913
0.139907
0.139902
0.139896
0.139889
0.139883
0.139877
0.139871
0.139865
0.13986
0.139854
0.139849
0.139844
0.139839
0.139835
0.13983
0.139826
0.139823
0.139819
0.139816
0.139812
0.13981
0.139807
0.139804
0.139802
0.1398
0.139798
0.139797
0.139795
0.139794
0.139983
0.139983
0.139983
0.139983
0.139982
0.139981
0.13998
0.139978
0.139977
0.139975
0.139973
0.139971
0.139969
0.139967
0.139964
0.139962
0.139959
0.139957
0.139954
0.139952
0.139949
0.139947
0.139944
0.139942
0.139939
0.139937
0.139934
0.139932
0.139929
0.139927
0.139925
0.139923
0.139921
0.139919
0.139917
0.139915
0.139913
0.139912
0.13991
0.139909
0.139907
0.0025773
0.00396154
0.00525971
0.00642514
0.0074807
0.00845443
0.00936786
0.0102376
0.0110769
0.0118965
0.0127056
0.0135121
0.014323
0.0151444
0.0159817
0.0168396
0.0177225
0.0186337
0.019576
0.0205518
0.0215626
0.0226093
0.0236925
0.0248119
0.0259672
0.0271572
0.0283808
0.0296363
0.030922
0.0322359
0.0335759
0.03494
0.0363259
0.0377315
0.0391547
0.0405933
0.0420452
0.0435085
0.0449812
0.0464616
0.0479479
0.0494383
0.0509314
0.0524256
0.0539196
0.055412
0.0569017
0.0583873
0.059868
0.0613426
0.0628102
0.0642701
0.0657213
0.0671631
0.0685949
0.070016
0.0714258
0.0728238
0.0742096
0.0755827
0.0769427
0.0782892
0.0796219
0.0809405
0.0822448
0.0835345
0.0848095
0.0860696
0.0873141
0.088546
0.0897512
0.0909905
0.0920012
0.0939073
0.00397973
0.00516766
0.00625854
0.00725793
0.00818995
0.00907317
0.00991938
0.0107384
0.0115393
0.0123298
0.013117
0.0139073
0.0147063
0.0155194
0.0163512
0.017206
0.0180873
0.0189982
0.0199412
0.0209182
0.0219305
0.0229789
0.0240637
0.0251848
0.0263413
0.0275325
0.0287569
0.030013
0.031299
0.0326131
0.0339531
0.035317
0.0367027
0.0381079
0.0395307
0.0409689
0.0424205
0.0438836
0.0453562
0.0468365
0.0483228
0.0498135
0.051307
0.0528018
0.0542966
0.05579
0.0572808
0.0587678
0.0602501
0.0617265
0.0631962
0.0646583
0.066112
0.0675565
0.0689913
0.0704155
0.0718288
0.0732305
0.0746202
0.0759974
0.0773618
0.0787129
0.0800505
0.0813742
0.0826838
0.0839792
0.08526
0.0865262
0.087777
0.0890155
0.0902275
0.0914738
0.0924919
0.0944073
0.00566393
0.00672287
0.00770188
0.00858846
0.00941067
0.0101964
0.0109608
0.0117134
0.0124614
0.0132109
0.0139671
0.0147347
0.0155181
0.0163213
0.0171477
0.0180007
0.018883
0.0197967
0.0207439
0.0217257
0.022743
0.0237964
0.0248857
0.0260106
0.0271702
0.0283637
0.0295896
0.0308464
0.0321324
0.0334458
0.0347847
0.036147
0.0375307
0.0389338
0.0403542
0.04179
0.0432392
0.0447
0.0461704
0.0476488
0.0491335
0.0506228
0.0521152
0.0536093
0.0551037
0.0565971
0.0580883
0.0595763
0.0610598
0.062538
0.0640098
0.0654746
0.0669313
0.0683794
0.0698181
0.0712468
0.0726649
0.0740719
0.0754674
0.0768508
0.0782217
0.0795799
0.0809249
0.0822565
0.0835744
0.0848784
0.0861683
0.087444
0.0887047
0.0899533
0.091176
0.092433
0.0934629
0.0953925
0.00759656
0.00848452
0.00933623
0.0101287
0.0108749
0.0115965
0.0123071
0.0130156
0.013729
0.014453
0.0151921
0.0159501
0.0167302
0.0175354
0.0183682
0.0192307
0.0201247
0.0210516
0.0220125
0.0230078
0.024038
0.0251031
0.0262027
0.0273361
0.0285026
0.0297011
0.0309303
0.0321887
0.0334748
0.034787
0.0361234
0.0374823
0.0388618
0.0402601
0.0416753
0.0431055
0.044549
0.0460041
0.0474689
0.0489418
0.0504213
0.0519058
0.0533938
0.0548839
0.0563748
0.0578654
0.0593542
0.0608404
0.0623228
0.0638004
0.0652723
0.0667377
0.0681958
0.0696458
0.0710871
0.0725189
0.0739408
0.0753521
0.0767524
0.0781413
0.0795182
0.0808829
0.082235
0.0835741
0.0849
0.0862124
0.0875111
0.0887961
0.0900664
0.0913249
0.0925581
0.0938251
0.0948668
0.0968091
0.0096206
0.010373
0.0111146
0.0118237
0.0125072
0.0131829
0.0138621
0.0145514
0.015256
0.01598
0.0167267
0.0174986
0.0182981
0.0191266
0.0199858
0.0208764
0.0217994
0.0227551
0.0237438
0.0247655
0.0258198
0.0269063
0.0280245
0.0291735
0.0303526
0.0315605
0.0327962
0.0340584
0.0353458
0.0366569
0.0379903
0.0393444
0.0407177
0.0421085
0.0435153
0.0449364
0.0463703
0.0478154
0.0492701
0.050733
0.0522025
0.0536773
0.0551561
0.0566374
0.05812
0.0596028
0.0610845
0.0625643
0.0640409
0.0655134
0.066981
0.0684428
0.0698979
0.0713457
0.0727854
0.0742164
0.0756381
0.0770499
0.0784513
0.0798419
0.081221
0.0825885
0.0839438
0.0852866
0.0866167
0.0879336
0.0892372
0.0905272
0.0918029
0.0930669
0.094306
0.0955781
0.0966273
0.0985736
0.0116916
0.0123629
0.0130435
0.0137104
0.014365
0.0150221
0.0156933
0.0163847
0.0171007
0.0178446
0.0186183
0.019423
0.0202596
0.0211284
0.0220295
0.0229628
0.0239279
0.0249243
0.0259516
0.0270089
0.0280956
0.0292109
0.0303539
0.0315238
0.0327196
0.0339404
0.035185
0.0364526
0.037742
0.0390521
0.0403816
0.0417294
0.0430942
0.0444747
0.0458697
0.0472777
0.0486976
0.0501279
0.0515674
0.0530147
0.0544687
0.0559279
0.0573912
0.0588574
0.0603254
0.061794
0.0632622
0.0647289
0.0661932
0.0676541
0.0691107
0.0705623
0.0720079
0.073447
0.0748786
0.0763022
0.0777172
0.0791229
0.0805187
0.0819042
0.0832789
0.0846424
0.085994
0.0873336
0.0886606
0.0899748
0.0912758
0.0925633
0.0938366
0.095098
0.0963348
0.0976031
0.0986522
0.100588
0.0139252
0.0145766
0.0152563
0.0159381
0.0166167
0.0173016
0.0180032
0.0187274
0.0194782
0.0202588
0.0210711
0.0219161
0.0227938
0.0237043
0.0246469
0.0256208
0.0266251
0.0276587
0.0287205
0.0298094
0.0309244
0.0320644
0.0332284
0.0344153
0.0356243
0.0368544
0.0381046
0.039374
0.0406618
0.0419671
0.0432888
0.0446261
0.045978
0.0473434
0.0487214
0.050111
0.0515111
0.0529205
0.0543384
0.0557635
0.0571948
0.0586312
0.0600717
0.0615152
0.0629607
0.0644071
0.0658536
0.0672991
0.0687428
0.0701837
0.071621
0.0730538
0.0744814
0.075903
0.0773178
0.0787253
0.0801246
0.0815153
0.0828967
0.0842682
0.0856292
0.0869794
0.0883181
0.0896448
0.0909593
0.0922609
0.0935494
0.0948243
0.0960848
0.0973331
0.0985569
0.0998101
0.100849
0.102756
0.0166301
0.0173235
0.018064
0.0188177
0.0195724
0.0203312
0.021102
0.0218896
0.0226973
0.0235281
0.0243842
0.0252671
0.0261777
0.0271162
0.0280828
0.029077
0.0300984
0.0311461
0.0322193
0.033317
0.0344381
0.0355817
0.0367467
0.0379321
0.039137
0.0403604
0.0416013
0.042859
0.0441326
0.0454212
0.046724
0.0480403
0.0493692
0.0507098
0.0520615
0.0534232
0.0547943
0.0561738
0.0575608
0.0589544
0.0603538
0.061758
0.0631662
0.0645774
0.0659907
0.0674053
0.0688202
0.0702346
0.0716475
0.0730583
0.074466
0.0758698
0.0772689
0.0786627
0.0800503
0.0814311
0.0828043
0.0841693
0.0855255
0.0868722
0.0882088
0.0895347
0.0908495
0.0921524
0.0934431
0.094721
0.0959856
0.0972365
0.0984727
0.0996963
0.100895
0.102121
0.10314
0.105
0.020292
0.0210744
0.0219183
0.0227775
0.0236345
0.0244868
0.0253397
0.0261976
0.0270634
0.0279404
0.0288313
0.0297383
0.0306631
0.031607
0.0325712
0.0335564
0.0345631
0.0355915
0.0366416
0.037713
0.0388055
0.0399185
0.0410514
0.0422033
0.0433736
0.0445614
0.045766
0.0469863
0.0482218
0.0494714
0.0507345
0.0520102
0.0532977
0.0545963
0.0559052
0.0572236
0.0585507
0.0598859
0.0612282
0.062577
0.0639313
0.0652905
0.0666537
0.0680201
0.0693889
0.0707593
0.0721304
0.0735014
0.0748716
0.0762401
0.0776062
0.078969
0.0803277
0.0816817
0.0830301
0.0843722
0.0857074
0.0870348
0.0883539
0.0896639
0.0909642
0.0922542
0.0935332
0.0948006
0.0960558
0.0972982
0.0985273
0.0997426
0.100943
0.10213
0.103293
0.104481
0.105469
0.107265
0.0255184
0.0263579
0.0272805
0.0282191
0.0291506
0.0300684
0.0309748
0.0318738
0.0327689
0.0336635
0.0345608
0.0354638
0.0363749
0.0372961
0.0382294
0.0391763
0.040138
0.0411157
0.0421102
0.043122
0.0441516
0.0451991
0.0462647
0.047348
0.0484489
0.0495669
0.0507015
0.0518521
0.0530181
0.0541986
0.0553931
0.0566008
0.0578208
0.0590525
0.060295
0.0615475
0.0628094
0.0640797
0.0653579
0.066643
0.0679343
0.0692311
0.0705325
0.0718377
0.0731461
0.0744568
0.0757689
0.0770818
0.0783946
0.0797066
0.0810168
0.0823247
0.0836293
0.0849299
0.0862258
0.0875161
0.0888001
0.0900771
0.0913464
0.0926072
0.0938589
0.0951006
0.0963318
0.0975518
0.0987599
0.0999554
0.101138
0.102306
0.10346
0.104601
0.105718
0.106857
0.107805
0.109522
0.0328263
0.0335548
0.0344237
0.035339
0.0362603
0.0371711
0.0380681
0.038953
0.0398282
0.0406966
0.0415611
0.0424244
0.0432894
0.0441582
0.0450331
0.0459157
0.0468077
0.0477105
0.0486252
0.049553
0.0504947
0.0514511
0.0524227
0.05341
0.0544132
0.0554323
0.0564674
0.0575181
0.0585844
0.0596658
0.0607619
0.0618721
0.0629957
0.0641323
0.0652809
0.066441
0.0676118
0.0687926
0.0699826
0.0711809
0.0723869
0.0735997
0.0748186
0.0760427
0.0772712
0.0785034
0.0797384
0.0809755
0.0822137
0.0834524
0.0846906
0.0859276
0.0871626
0.0883947
0.0896232
0.0908473
0.0920662
0.093279
0.0944851
0.0956836
0.0968737
0.0980548
0.0992262
0.100387
0.101537
0.102674
0.103799
0.104911
0.106008
0.107093
0.108154
0.109236
0.110138
0.111764
0.042139
0.0426652
0.0433071
0.0440548
0.0448544
0.0456694
0.0464854
0.0472971
0.0481019
0.0488997
0.0496922
0.0504817
0.0512704
0.0520601
0.0528524
0.053649
0.0544511
0.0552604
0.056078
0.0569053
0.0577432
0.0585926
0.0594543
0.0603288
0.0612167
0.0621185
0.0630346
0.0639652
0.0649105
0.0658705
0.0668451
0.0678341
0.0688371
0.0698538
0.0708838
0.0719266
0.0729815
0.0740481
0.0751256
0.0762133
0.0773105
0.0784164
0.0795303
0.0806514
0.0817788
0.0829118
0.0840495
0.0851911
0.0863358
0.0874826
0.0886309
0.0897796
0.090928
0.0920753
0.0932205
0.0943629
0.0955015
0.0966357
0.0977645
0.0988871
0.100003
0.101111
0.10221
0.1033
0.104379
0.105448
0.106506
0.107551
0.108583
0.109602
0.1106
0.111616
0.112465
0.113991
0.0529275
0.0533103
0.0537565
0.0542208
0.0547354
0.0553456
0.0560101
0.0566902
0.0573734
0.0580581
0.0587443
0.0594316
0.0601191
0.0608067
0.0614954
0.0621866
0.062882
0.0635829
0.0642905
0.0650055
0.0657287
0.0664609
0.0672026
0.0679548
0.0687181
0.0694931
0.0702806
0.0710809
0.0718943
0.072721
0.0735613
0.0744152
0.0752827
0.0761638
0.0770584
0.0779663
0.0788872
0.0798208
0.0807666
0.081724
0.0826925
0.0836715
0.0846604
0.0856583
0.0866648
0.0876789
0.0886998
0.0897269
0.0907591
0.0917958
0.092836
0.0938788
0.0949235
0.0959692
0.0970149
0.0980598
0.099103
0.100144
0.101181
0.102214
0.103242
0.104263
0.105278
0.106286
0.107284
0.108274
0.109253
0.110222
0.111179
0.112125
0.113052
0.113995
0.114785
0.1162
0.0647739
0.0650036
0.0652872
0.065583
0.0658899
0.0662141
0.0665597
0.0669485
0.0674199
0.0679467
0.0684962
0.0690502
0.0696045
0.0701615
0.0707241
0.0712933
0.0718691
0.0724511
0.0730386
0.0736317
0.0742311
0.0748376
0.0754524
0.0760765
0.0767106
0.0773552
0.0780107
0.0786772
0.0793551
0.0800446
0.0807462
0.08146
0.0821866
0.0829259
0.0836783
0.0844437
0.085222
0.0860129
0.0868164
0.087632
0.0884595
0.0892985
0.0901487
0.0910095
0.0918803
0.0927605
0.0936495
0.0945465
0.0954507
0.0963616
0.0972781
0.0981996
0.0991253
0.100054
0.100986
0.101918
0.102852
0.103785
0.104717
0.105647
0.106574
0.107498
0.108417
0.10933
0.110237
0.111137
0.112029
0.112912
0.113785
0.114649
0.115496
0.116358
0.117082
0.118377
0.0771414
0.0772219
0.0773469
0.0774809
0.0776221
0.077775
0.0779437
0.0781316
0.0783417
0.0785758
0.0788338
0.0791174
0.0794541
0.0798465
0.0802714
0.0807111
0.0811565
0.0816041
0.0820547
0.0825117
0.0829776
0.0834537
0.08394
0.0844362
0.0849419
0.0854567
0.0859802
0.0865129
0.0870555
0.0876085
0.0881726
0.0887484
0.089336
0.0899356
0.0905473
0.0911708
0.0918063
0.0924537
0.0931131
0.0937844
0.0944677
0.0951627
0.0958693
0.0965871
0.0973157
0.0980546
0.0988033
0.0995614
0.100328
0.101103
0.101886
0.102676
0.103472
0.104273
0.105078
0.105888
0.1067
0.107515
0.108331
0.109147
0.109963
0.110778
0.11159
0.112399
0.113205
0.114005
0.1148
0.115589
0.11637
0.117144
0.117904
0.118679
0.119331
0.120495
0.0893042
0.089261
0.0892503
0.0892455
0.0892451
0.0892525
0.0892716
0.0893058
0.0893576
0.0894286
0.0895195
0.0896308
0.0897629
0.0899164
0.0900914
0.0902873
0.0905031
0.0907395
0.0910126
0.0913258
0.0916657
0.0920211
0.0923854