/*--------------------------------*- C++ -*----------------------------------*\
  =========                 |
  \\      /  F ield         | OpenFOAM: The Open Source CFD Toolbox
   \\    /   O peration     | Website:  https://openfoam.org
    \\  /    A nd           | Version:  11
     \\/     M anipulation  |
\*---------------------------------------------------------------------------*/
FoamFile
{
    format      ascii;
    class       volScalarField;
    location    "450";
    object      p;
}
// * * * * * * * * * * * * * * * * * * * * * * * * * * * * * * * * * * * * * //

dimensions      [0 2 -2 0 0 0 0];

internalField   nonuniform List<scalar> 
11040
(
376.432
356.384
309.006
237.107
153.081
46.2078
-61.2376
-135.958
-127.901
-118.571
-147.088
-204.915
-338.823
-506.962
-652.74
-665.293
-592.27
-386.143
-254.326
-206.475
-180.501
-156.099
-135.736
-120.369
-109.184
-102.768
-90.3761
-67.757
-53.6368
-43.2732
-33.0269
-22.898
-13.2363
-3.90186
5.36626
14.756
24.376
34.6127
45.2871
58.4036
69.2469
369.265
349.806
307.422
244.874
169.678
77.3147
-16.9694
-86.1361
-103.708
-109.233
-141.363
-199.483
-317.438
-463.091
-590.191
-613.337
-566.673
-394.976
-264.97
-211.509
-183.036
-157.991
-137.199
-121.434
-109.789
-102.652
-90.4667
-68.8559
-54.5203
-43.9471
-33.6427
-23.4775
-13.776
-4.41075
4.87392
14.27
23.883
34.1056
44.6942
57.8417
68.0975
357.143
339.059
301.271
245.898
177.544
95.3694
9.53231
-59.6774
-94.076
-109.017
-139.791
-194.757
-296.776
-423.957
-539.67
-574.045
-542.773
-401.563
-273.327
-214.057
-184.162
-159.163
-138.15
-122.05
-109.97
-102.124
-90.3543
-69.8872
-55.1397
-44.3372
-34.0338
-23.8639
-14.1386
-4.75836
4.52698
13.9151
23.5056
33.69
44.1685
57.2105
66.8313
341.419
324.658
291.107
242.758
182.261
110.43
34.0712
-31.8255
-76.1485
-100.375
-132.6
-185.849
-274.636
-384.395
-488.242
-532.091
-516.654
-403.111
-281.373
-217.431
-185.684
-160.581
-139.289
-122.785
-110.232
-101.577
-90.1195
-70.9224
-55.8943
-44.861
-34.5594
-24.3868
-14.6361
-5.24242
4.03744
13.4059
22.9555
33.0674
43.3932
56.1568
65.1404
322.388
306.916
277.501
235.94
183.523
121.594
54.755
-5.98223
-55.7892
-89.3562
-124.252
-175.273
-251.677
-344.432
-434.885
-483.401
-483.472
-399.438
-289.538
-222.056
-187.567
-162.155
-140.618
-123.642
-110.547
-100.983
-89.7151
-71.9632
-56.8624
-45.5429
-35.2139
-25.0511
-15.2839
-5.8846
3.37484
12.6989
22.1724
32.1505
42.2488
54.5072
62.824
300.412
286.234
260.777
225.544
181.02
128.474
70.9527
16.365
-34.6553
-75.0504
-112.734
-161.369
-226.952
-304.403
-381.734
-431.988
-445.149
-389.901
-295.982
-227.154
-189.578
-163.715
-142.058
-124.603
-110.924
-100.423
-89.1954
-72.9346
-57.9963
-46.3763
-35.9979
-25.8694
-16.1056
-6.71502
2.5019
11.7469
21.0967
30.8626
40.6429
52.1591
59.8701
276.071
263.186
241.409
211.914
174.755
130.868
82.2129
34.3342
-14.4018
-58.2009
-98.1379
-144.502
-200.896
-265.105
-330.175
-379.452
-402.328
-372.875
-298.539
-232.042
-191.751
-165.195
-143.508
-125.624
-111.345
-99.9612
-88.6351
-73.7557
-59.235
-47.3824
-36.9358
-26.8638
-17.135
-7.77883
1.3642
10.4839
19.648
29.1062
38.4661
49.0292
56.2222
250.066
238.448
220.007
195.59
165.038
128.926
88.4758
47.4501
3.34419
-40.3587
-81.0772
-125.032
-173.74
-226.912
-281.084
-327.066
-355.764
-347.577
-295.025
-235.399
-193.803
-166.424
-144.784
-126.617
-111.782
-99.623
-88.1014
-74.3723
-60.481
-48.5395
-38.0271
-28.0327
-18.3852
-9.10461
-0.0782299
8.85809
17.7617
26.8087
35.6444
45.1144
51.828
223.164
212.766
197.277
177.252
152.427
123.098
90.0027
55.6138
17.3752
-23.3351
-62.7926
-103.834
-146.108
-190.314
-235.229
-276.509
-307.402
-314.745
-283.645
-235.209
-194.923
-167.076
-145.602
-127.399
-112.155
-99.3777
-87.6298
-74.7781
-61.638
-49.8002
-39.2657
-29.3697
-19.8537
-10.7038
-1.84924
6.83662
15.3991
23.9403
32.1627
40.5078
46.702
196.143
186.901
173.972
157.666
137.668
114.1
87.4007
59.1538
27.1262
-8.7102
-44.924
-82.2462
-118.932
-155.895
-193.165
-229.186
-259.464
-276.316
-263.684
-229.298
-193.744
-166.578
-145.557
-127.646
-112.268
-99.1027
-87.1857
-74.9826
-62.6228
-51.0906
-40.6353
-30.8756
-21.5473
-12.5966
-3.9798
4.38733
12.534
20.4992
28.0472
35.339
40.9404
169.741
161.58
150.838
137.628
121.613
102.828
81.5393
58.7449
32.6513
2.51529
-29.0507
-61.8224
-93.364
-124.339
-155.294
-186.067
-213.909
-235.047
-236.048
-216.138
-188.491
-163.944
-144.052
-126.892
-111.797
-98.573
-86.6457
-74.9618
-63.3509
-52.297
-42.075
-32.5322
-23.4645
-14.7955
-6.49447
1.48351
9.14778
16.4942
23.3423
29.7098
34.6955
144.615
137.458
128.568
117.902
105.124
90.2396
73.4213
55.2945
34.4962
10.0535
-16.2468
-43.9357
-70.5384
-96.3446
-121.968
-147.795
-172.255
-193.911
-203.204
-195.677
-177.632
-157.86
-140.234
-124.489
-110.238
-97.4128
-85.7573
-74.6062
-63.7226
-53.279
-43.4683
-34.267
-25.5563
-17.2664
-9.37368
-1.86166
5.26194
11.9713
18.1319
23.7154
28.1418
121.302
115.078
107.746
99.1565
88.9865
77.2438
64.0506
49.8008
33.5019
14.2216
-6.89248
-29.434
-51.294
-72.4793
-93.4725
-114.763
-135.499
-155.425
-168.431
-169.63
-160.777
-147.211
-133.138
-119.655
-106.928
-95.0771
-84.1068
-73.6652
-63.5677
-53.8557
-44.6371
-35.9375
-27.7095
-19.91
-12.525
-5.55507
0.98147
7.05278
12.564
17.4875
21.4512
100.183
94.8255
88.8079
81.9101
73.8345
64.6036
54.312
43.2098
30.5992
15.7059
-0.757553
-18.5203
-35.9804
-53.0053
-69.9098
-87.1115
-104.153
-121.279
-134.824
-140.907
-139.141
-131.833
-122.135
-111.701
-101.183
-90.9268
-81.1433
-71.7282
-62.5923
-53.7678
-45.3271
-37.3104
-29.7156
-22.5309
-15.7561
-9.40177
-3.48978
1.95103
6.85862
11.2188
14.8023
81.4768
76.9241
72.0158
66.4977
60.104
52.8734
44.884
36.2959
26.6326
15.3043
2.74746
-10.8808
-24.4544
-37.8098
-51.1296
-64.7178
-78.3134
-92.3204
-104.612
-112.538
-115.131
-112.855
-107.469
-100.442
-92.6039
-84.4487
-76.3277
-68.3116
-60.4007
-52.6717
-45.2083
-38.0648
-31.2671
-24.83
-18.7683
-13.0998
-7.84638
-3.03112
1.30833
5.16833
8.41591
65.3292
61.5167
57.5393
53.1385
48.0886
42.4405
36.2596
29.6488
22.2914
13.7644
4.33676
-5.90752
-16.2168
-26.4489
-36.7048
-47.1852
-57.7308
-68.7391
-78.9999
-86.84
-91.388
-92.3327
-90.3731
-86.48
-81.3657
-75.5277
-69.3622
-63.0363
-56.6059
-50.1909
-43.9032
-37.8163
-31.9766
-26.4187
-21.1708
-16.2575
-11.7006
-7.51905
-3.73545
-0.348901
2.56722
51.8159
48.674
45.4782
41.9796
38.0006
33.6
28.8304
23.7576
18.1754
11.7955
4.78559
-2.81072
-10.507
-18.197
-25.935
-33.8446
-41.8284
-50.2079
-58.3046
-65.1059
-69.9973
-72.4935
-72.7226
-71.1996
-68.398
-64.7082
-60.4847
-55.9184
-51.0819
-46.1099
-41.1301
-36.2297
-31.4687
-26.8934
-22.5418
-18.4435
-14.6217
-11.0934
-7.87434
-4.9638
-2.40156
41.2249
38.6239
36.0608
33.2609
30.0959
26.6319
22.9093
18.9715
14.683
9.85137
4.58509
-1.09299
-6.8667
-12.6614
-18.5044
-24.4672
-30.4811
-36.7811
-42.9867
-48.4867
-52.8848
-55.7568
-57.0172
-56.9033
-55.6817
-53.6107
-50.9614
-47.9022
-44.4954
-40.8631
-37.1272
-33.3756
-29.6713
-26.0646
-22.5966
-19.2992
-16.1965
-13.306
-10.6409
-8.20369
-6.01705
33.1743
31
28.9205
26.6455
24.0866
21.312
18.3527
15.2383
11.8781
8.14195
4.10427
-0.221563
-4.62404
-9.05067
-13.5151
-18.0588
-22.6335
-27.4022
-32.1408
-36.4723
-40.1459
-42.8395
-44.4204
-44.9896
-44.685
-43.662
-42.1114
-40.1645
-37.8658
-35.3129
-32.6091
-29.832
-27.0395
-24.2793
-21.5907
-19.0046
-16.5448
-14.2283
-12.0677
-10.0681
-8.24487
27.0008
25.1735
23.4679
21.5962
19.4998
17.2446
14.8548
12.3508
9.67113
6.72689
3.57134
0.213571
-3.2009
-6.63454
-10.0936
-13.6014
-17.1225
-20.7692
-24.4041
-27.7867
-30.7562
-33.0789
-34.6332
-35.4602
-35.6282
-35.2272
-34.3861
-33.2013
-31.7003
-29.956
-28.0495
-26.0442
-23.9891
-21.9249
-19.8863
-17.9009
-15.9903
-14.1706
-12.4535
-10.8458
-9.3588
22.1896
20.648
19.236
17.6806
15.9445
14.0898
12.1349
10.095
7.92766
5.57185
3.06695
0.420062
-2.26615
-4.96425
-7.67645
-10.4156
-13.1549
-15.9716
-18.7778
-21.4156
-23.7805
-25.7047
-27.0916
-27.9577
-28.3367
-28.2806
-27.8751
-27.1885
-26.2367
-25.0719
-23.755
-22.3353
-20.8512
-19.3361
-17.8183
-16.3212
-14.8634
-13.4589
-12.1186
-10.8496
-9.66077
18.3908
17.0865
15.9087
14.6055
13.1556
11.6155
9.99994
8.32015
6.54696
4.63821
2.62382
0.50988
-1.62965
-3.77428
-5.92402
-8.08548
-10.2379
-12.4347
-14.6171
-16.679
-18.551
-20.1127
-21.2922
-22.0964
-22.5426
-22.6613
-22.5098
-22.1362
-21.5492
-20.7856
-19.89
-18.8991
-17.8423
-16.7456
-15.6312
-14.5182
-13.4217
-12.3536
-11.3232
-10.3373
-9.4032
15.3571
14.251
13.2621
12.1629
10.9433
9.65418
8.30741
6.91173
5.44711
3.88439
2.24683
0.539865
-1.18221
-2.9038
-4.62374
-6.34497
-8.05133
-9.77954
-11.4893
-13.1077
-14.5877
-15.8427
-16.8204
-17.5248
-17.9652
-18.1605
-18.1495
-17.9663
-17.6158
-17.1235
-16.5217
-15.8374
-15.0925
-14.3066
-13.4969
-12.6783
-11.8626
-11.0597
-10.2772
-9.52112
-8.79759
12.9111
11.9711
11.136
10.2035
9.17141
8.08507
6.95418
5.7858
4.56631
3.27564
1.93216
0.540862
-0.857806
-2.25176
-3.63927
-5.02114
-6.38466
-7.75517
-9.10426
-10.3808
-11.5527
-12.5568
-13.3562
-13.9538
-14.3554
-14.5733
-14.6344
-14.5632
-14.3624
-14.0502
-13.6497
-13.1806
-12.6591
-12.0997
-11.5156
-10.9179
-10.3159
-9.71748
-9.12868
-8.55449
-8.00025
10.9222
10.1219
9.41319
8.61818
7.74014
6.81923
5.86361
4.87915
3.85676
2.78277
1.6719
0.528742
-0.616168
-1.75334
-2.8808
-3.99818
-5.09543
-6.19008
-7.26167
-8.2739
-9.20436
-10.0071
-10.656
-11.154
-11.505
-11.7176
-11.8112
-11.8033
-11.6958
-11.5016
-11.2375
-10.9178
-10.5543
-10.1579
-9.73837
-9.30413
-8.86234
-8.41896
-7.97886
-7.54601
-7.12504
9.29303
8.61062
8.00646
7.32569
6.57521
5.79046
4.97846
4.14425
3.28199
2.38249
1.45771
0.511861
-0.431741
-1.36556
-2.2876
-3.19688
-4.08544
-4.96542
-5.82184
-6.62866
-7.37014
-8.01246
-8.53756
-8.94831
-9.24782
-9.44239
-9.54609
-9.57202
-9.52148
-9.40385
-9.23138
-9.0145
-8.76199
-8.48182
-8.18126
-7.86668
-7.54348
-7.21623
-6.88873
-6.56405
-6.24621
7.94992
7.36727
6.85007
6.2648
5.62064
4.94877
4.25538
3.54491
2.81384
2.05618
1.28172
0.494326
-0.288045
-1.05935
-1.81769
-2.56181
-3.28542
-3.99695
-4.6853
-5.33162
-5.92484
-6.43993
-6.86452
-7.20149
-7.45341
-7.62517
-7.72725
-7.76947
-7.75293
-7.68457
-7.57338
-7.42706
-7.25211
-7.05443
-6.83944
-6.61191
-6.37593
-6.13496
-5.89196
-5.64923
-5.41031
6.83631
6.33826
5.89379
5.38879
4.83372
4.25601
3.66121
3.05336
2.43056
1.78912
1.13712
0.478058
-0.174102
-0.814495
-1.44137
-2.05343
-2.64569
-3.22402
-3.78018
-4.30042
-4.77694
-5.19119
-5.5348
-5.81055
-6.0207
-6.16916
-6.26385
-6.31225
-6.31537
-6.27842
-6.20807
-6.11006
-5.98922
-5.84995
-5.69632
-5.5319
-5.35977
-5.18256
-5.00256
-4.82148
-4.64238
5.90832
5.48217
5.09881
4.66156
4.1815
3.68274
3.17038
2.64812
2.11524
1.56967
1.01813
0.463791
-0.0824434
-0.61663
-1.13721
-1.64294
-2.12991
-2.60222
-3.05372
-3.47439
-3.85872
-4.19293
-4.4715
-4.69705
-4.87157
-4.99826
-5.08321
-5.13216
-5.14609
-5.12895
-5.08575
-5.0208
-4.93774
-4.83985
-4.73021
-4.61149
-4.48604
-4.35585
-4.22268
-4.08779
-3.95383
5.13157
4.76665
4.43482
4.05498
3.63832
3.20606
2.76294
2.31243
1.85464
1.38862
0.920022
0.451673
-0.00784498
-0.455338
-0.889453
-1.30907
-1.71112
-2.09853
-2.46669
-2.80829
-3.11951
-3.39008
-3.61647
-3.8011
-3.94574
-4.05304
-4.12774
-4.17431
-4.19366
-4.18883
-4.16363
-4.12132
-4.06465
-3.99612
-3.91804
-3.83245
-3.74112
-3.64556
-3.54715
-3.4468
-3.34678
4.47887
4.16616
3.87796
3.54691
3.18402
2.80797
2.42325
2.03314
1.63833
1.23866
0.838899
0.441565
0.0534319
-0.32291
-0.686311
-1.0358
-1.36903
-1.68806
-1.9895
-2.26802
-2.52102
-2.74084
-2.92535
-3.07674
-3.19658
-3.2871
-3.352
-3.3948
-3.41633
-3.41899
-3.40567
-3.37887
-3.34069
-3.29304
-3.23767
-3.17613
-3.10978
-3.03977
-2.96717
-2.89263
-2.81811
3.92854
3.66042
3.40925
3.11976
2.80259
2.47422
2.13894
1.79985
1.45807
1.11398
0.771615
0.43321
0.104126
-0.213543
-0.518841
-0.810971
-1.08813
-1.35184
-1.59959
-1.82757
-2.03401
-2.21325
-2.3641
-2.48853
-2.58793
-2.66415
-2.72015
-2.75868
-2.78054
-2.78758
-2.78206
-2.76589
-2.74069
-2.70792
-2.66893
-2.6249
-2.57688
-2.52575
-2.47233
-2.4171
-2.36173
3.46319
3.23319
3.01352
2.75951
2.4813
2.19347
1.90013
1.60428
1.3073
1.00993
0.715617
0.426316
0.146284
-0.1228
-0.38016
-0.625168
-0.856472
-1.07522
-1.2796
-1.4669
-1.63598
-1.78267
-1.90642
-2.00899
-2.09158
-2.15577
-2.2039
-2.23818
-2.25931
-2.26877
-2.26832
-2.25942
-2.24335
-2.22122
-2.19409
-2.16285
-2.12831
-2.09116
-2.05203
-2.01127
-1.9703
3.06875
2.87136
2.67854
2.45485
2.2099
1.95658
1.69892
1.4398
1.18076
0.922793
0.668837
0.420601
0.181462
-0.0472461
-0.264914
-0.471073
-0.664737
-0.846808
-1.01601
-1.17044
-1.30944
-1.42994
-1.53184
-1.61665
-1.68546
-1.73959
-1.78091
-1.81119
-1.83106
-1.84171
-1.84448
-1.84056
-1.83091
-1.81641
-1.79788
-1.776
-1.75141
-1.72464
-1.69618
-1.66628
-1.63615
2.73381
2.56432
2.39441
2.19665
1.98009
1.75621
1.52893
1.30106
1.07422
0.84956
0.629593
0.415802
0.210857
0.0158061
-0.168896
-0.342928
-0.505598
-0.657649
-0.798216
-0.926013
-1.04071
-1.14008
-1.2243
-1.2947
-1.35222
-1.39796
-1.43346
-1.46012
-1.4785
-1.48955
-1.49435
-1.4938
-1.48867
-1.47965
-1.46737
-1.45237
-1.43514
-1.41609
-1.39562
-1.37388
-1.35193
2.44905
2.30343
2.15306
1.97745
1.78514
1.58637
1.38498
1.18371
0.984245
0.787792
0.596511
0.41168
0.2354
0.0684747
-0.0887793
-0.236173
-0.373255
-0.500665
-0.617858
-0.724005
-0.819019
-0.901296
-0.971191
-1.02986
-1.07812
-1.11691
-1.14745
-1.1709
-1.18774
-1.19873
-1.20472
-1.20644
-1.20448
-1.19939
-1.19166
-1.18171
-1.16993
-1.15664
-1.14215
-1.12656
-1.11078
2.20684
2.08163
1.94792
1.79121
1.61956
1.44217
1.26284
1.08422
0.908025
0.735487
0.568456
0.408017
0.255812
0.112436
-0.0219179
-0.147178
-0.26309
-0.370227
-0.468293
-0.556795
-0.635819
-0.704235
-0.7625
-0.811616
-0.852282
-0.8853
-0.911668
-0.932307
-0.947647
-0.95831
-0.964964
-0.96818
-0.968437
-0.966164
-0.961745
-0.955519
-0.947783
-0.938784
-0.928785
-0.917837
-0.906722
2.00092
1.89309
1.77356
1.63294
1.47886
1.31964
1.15905
0.999684
0.843257
0.69099
0.544468
0.404598
0.272642
0.149012
0.0337941
-0.0730472
-0.171413
-0.26184
-0.34422
-0.418311
-0.484319
-0.541468
-0.590269
-0.631583
-0.666016
-0.694245
-0.717087
-0.735289
-0.749225
-0.759399
-0.766344
-0.770515
-0.772295
-0.772021
-0.769999
-0.766495
-0.761747
-0.755944
-0.749302
-0.741842
-0.734242
1.82611
1.73302
1.62549
1.49846
1.35926
1.21544
1.07075
0.927722
0.788058
0.652949
0.523753
0.401219
0.286296
0.179237
0.0800239
-0.01147
-0.0952752
-0.171908
-0.241403
-0.303704
-0.359096
-0.407072
-0.448159
-0.483098
-0.512412
-0.536676
-0.556557
-0.572666
-0.585325
-0.594947
-0.601957
-0.606718
-0.609538
-0.610684
-0.610401
-0.608898
-0.606364
-0.60295
-0.598828
-0.594002
-0.589062
1.6782
1.59751
1.49998
1.38429
1.25752
1.12666
0.995389
0.866216
0.740775
0.620197
0.50564
0.397706
0.297093
0.203923
0.118091
0.0393865
-0.0323271
-0.0975581
-0.156452
-0.209086
-0.255799
-0.296282
-0.331057
-0.36076
-0.385841
-0.406792
-0.42416
-0.438445
-0.449927
-0.458942
-0.465835
-0.470897
-0.474373
-0.476481
-0.477413
-0.477337
-0.476404
-0.474733
-0.472465
-0.46959
-0.466621
1.55377
1.48346
1.39424
1.28784
1.17123
1.05099
0.930839
0.813244
0.699789
0.591513
0.489359
0.393772
0.305218
0.223706
0.149056
0.0809979
0.0193137
-0.0364989
-0.0866692
-0.131376
-0.170991
-0.205357
-0.234979
-0.260401
-0.282013
-0.300233
-0.315511
-0.32826
-0.338718
-0.347163
-0.353872
-0.35908
-0.362987
-0.365766
-0.367573
-0.368542
-0.368795
-0.368424
-0.36755
-0.366149
-0.364672
1.44991
1.38826
1.30599
1.20726
1.09895
0.987299
0.876082
0.767823
0.664116
0.565956
0.474118
0.38889
0.310509
0.23884
0.173608
0.11447
0.0611415
0.013128
-0.0298517
-0.0680378
-0.101813
-0.131131
-0.15647
-0.178299
-0.196961
-0.212816
-0.22624
-0.237575
-0.24703
-0.254835
-0.261215
-0.266362
-0.270436
-0.27358
-0.275917
-0.277557
-0.278596
-0.279111
-0.279197
-0.278831
-0.278399
1.36417
1.30927
1.23236
1.13975
1.03831
0.933891
0.830194
0.729677
0.633907
0.543865
0.460251
0.3833
0.313124
0.249498
0.192057
0.140367
0.0940421
0.0525558
0.0155575
-0.0172524
-0.0462643
-0.0715109
-0.0934331
-0.112423
-0.128773
-0.142787
-0.154774
-0.165016
-0.173693
-0.180997
-0.187111
-0.192194
-0.196377
-0.199778
-0.2025
-0.204631
-0.206251
-0.207423
-0.208226
-0.208639
-0.208986
1.29475
1.24424
1.17014
1.08101
0.984174
0.885382
0.78819
0.694796
0.606478
0.523966
0.447729
0.377883
0.314454
0.25722
0.205854
0.15995
0.119128
0.0828761
0.0508047
0.0225575
-0.00228202
-0.0238411
-0.0425572
-0.0587896
-0.0728132
-0.0849003
-0.0953181
-0.104304
-0.112012
-0.118604
-0.124226
-0.129007
-0.133053
-0.136456
-0.139299
-0.141652
-0.143579
-0.145129
-0.146366
-0.147272
-0.148104
1.24068
1.19326
1.12028
1.0319
0.936211
0.839433
0.745495
0.656695
0.574192
0.498427
0.429471
0.367056
0.310841
0.260353
0.21511
0.174642
0.138554
0.106408
0.0778713
0.0526465
0.0303894
0.0109722
-0.00596337
-0.0207042
-0.0334842
-0.0445403
-0.054103
-0.0623794
-0.0695169
-0.0756607
-0.0809448
-0.0854831
-0.089372
-0.0926955
-0.0955264
-0.0979282
-0.0999561
-0.101655
-0.103077
-0.104218
-0.10526
1.20115
1.15845
1.08952
1.00403
0.909825
0.813311
0.719012
0.629856
0.547543
0.472886
0.406125
0.347023
0.295117
0.24975
0.210199
0.175733
0.145694
0.119437
0.0964477
0.0763033
0.0586113
0.0431625
0.0296057
0.0176929
0.00723232
-0.0019572
-0.0100443
-0.0171757
-0.023455
-0.0289821
-0.0338498
-0.0381373
-0.0419129
-0.0452365
-0.048161
-0.0507331
-0.0529942
-0.0549791
-0.0567257
-0.0582414
-0.059624
1.17501
1.13622
1.07253
0.993475
0.906017
0.815598
0.726118
0.640212
0.559546
0.485103
0.417364
0.356421
0.302131
0.254158
0.212063
0.175346
0.143503
0.115999
0.0923393
0.0720503
0.0546677
0.0398444
0.0271932
0.0164155
0.0072446
-0.000565447
-0.00722899
-0.0129265
-0.0177979
-0.0219669
-0.0255385
-0.0285999
-0.0312228
-0.033468
-0.0353861
-0.0370206
-0.0384081
-0.0395803
-0.0405624
-0.0413858
-0.0420353
1.16119
1.11217
1.03449
0.944623
0.852475
0.763694
0.681077
0.605703
0.537719
0.476804
0.422435
0.374002
0.330893
0.292523
0.258362
0.227926
0.200794
0.176592
0.155018
0.135813
0.118742
0.103588
0.0900834
0.0780586
0.0673762
0.0578954
0.049481
0.0420133
0.0353909
0.0295206
0.0243163
0.019702
0.0156099
0.0119805
0.00876037
0.00590237
0.00336634
0.00111108
-0.000880235
-0.00268824
-0.00413377
103.121
71.1461
53.5134
50.2841
45.8881
40.1485
35.4658
31.7522
28.4666
25.5076
22.8914
20.5784
18.5168
16.6719
15.0193
13.5366
12.2043
11.0056
9.92606
8.95312
8.07571
7.28407
6.56954
5.92445
5.34194
4.81588
4.34079
3.91172
3.52425
3.17438
2.85851
2.57339
2.31608
2.08392
1.87452
1.6857
1.51548
1.36209
1.2239
1.09946
0.987431
0.886613
0.795913
0.714345
0.64101
0.575096
0.515867
0.462655
0.414857
0.371924
0.333361
0.298718
0.267589
0.239606
0.214435
0.191777
0.171356
0.152928
0.136266
0.121169
0.107449
0.0949396
0.0834806
0.0729335
0.063139
0.0540172
0.0452714
0.037174
0.0283265
0.0217942
0.00752856
0.0116593
-0.0486943
0.0711651
100.055
71.1721
53.6407
50.1909
45.8416
40.1248
35.4424
31.7341
28.4537
25.4975
22.8832
20.5718
18.5115
16.6676
15.0158
13.5337
12.202
11.0037
9.92446
8.9518
8.07462
7.28317
6.56881
5.92385
5.34145
4.81548
4.34046
3.91146
3.52404
3.17421
2.85838
2.57328
2.316
2.08386
1.87448
1.68567
1.51546
1.36208
1.2239
1.09946
0.98744
0.886625
0.795929
0.714363
0.641029
0.575116
0.515888
0.462676
0.414878
0.371945
0.333382
0.298739
0.267609
0.239626
0.214455
0.191796
0.171374
0.152945
0.136283
0.121185
0.107465
0.0949544
0.0834948
0.0729472
0.0631522
0.0540298
0.0452838
0.0371854
0.0283397
0.0218028
0.00755685
0.0116435
-0.0484798
0.0708878
95.6851
71.1029
53.6992
49.9214
45.7156
40.0668
35.3877
31.6913
28.4233
25.474
22.8644
20.5569
18.4996
16.6581
15.008
13.5274
12.1968
10.9995
9.92102
8.949
8.07234
7.28131
6.5673
5.92263
5.34046
4.81469
4.33983
3.91096
3.52365
3.17391
2.85815
2.57312
2.31588
2.08378
1.87443
1.68564
1.51546
1.36209
1.22393
1.0995
0.987483
0.886674
0.795981
0.714418
0.641086
0.575174
0.515946
0.462734
0.414936
0.372001
0.333437
0.298792
0.267661
0.239675
0.214502
0.191841
0.171418
0.152987
0.136323
0.121223
0.107501
0.0949893
0.083528
0.0729788
0.0631823
0.0540584
0.0453117
0.0372112
0.028369
0.0218227
0.00761707
0.0116156
-0.0480266
0.0703053
90.2894
70.4453
53.6334
49.4637
45.4621
39.9462
35.2835
31.6091
28.3655
25.4306
22.8301
20.53
18.4785
16.6413
14.9946
13.5167
12.1882
10.9925
9.91545
8.94452
8.06874
7.27843
6.565
5.9208
5.33902
4.81356
4.33896
3.91029
3.52315
3.17354
2.85789
2.57294
2.31578
2.08374
1.87443
1.68567
1.51552
1.36217
1.22402
1.0996
0.987594
0.88679
0.7961
0.714538
0.641206
0.575292
0.516062
0.462848
0.415046
0.372108
0.33354
0.298891
0.267756
0.239766
0.214589
0.191924
0.171496
0.153061
0.136394
0.12129
0.107565
0.0950496
0.0835851
0.0730329
0.0632338
0.0541071
0.0453589
0.0372548
0.0284179
0.021857
0.00771435
0.0115781
-0.0473025
0.0693729
83.9942
68.9231
53.3791
48.7798
45.0026
39.7158
35.1014
31.4631
28.2615
25.3535
22.7702
20.4835
18.4424
16.6131
14.9723
13.4991
12.1743
10.9815
9.90669
8.93758
8.06325
7.2741
6.5616
5.91815
5.33697
4.81199
4.33777
3.90941
3.52251
3.1731
2.8576
2.57278
2.31571
2.08375
1.87449
1.68579
1.51566
1.36234
1.2242
1.0998
0.987797
0.886996
0.796307
0.714742
0.641407
0.575489
0.516252
0.463032
0.415223
0.372278
0.333702
0.299045
0.267903
0.239906
0.214722
0.19205
0.171616
0.153174
0.136501
0.121391
0.10766
0.0951395
0.0836701
0.073113
0.0633097
0.0541787
0.0454281
0.0373187
0.028489
0.0219079
0.00785374
0.0115316
-0.0462709
0.0680344
76.9875
66.3483
52.7614
47.8113
44.2497
39.3085
34.8008
31.219
28.0825
25.221
22.6674
20.4035
18.3805
16.5647
14.9344
13.4692
12.1507
10.9629
9.89205
8.92603
8.05416
7.26696
6.55602
5.9138
5.33361
4.80942
4.33582
3.90796
3.52146
3.17237
2.85712
2.57249
2.31557
2.08373
1.87456
1.68593
1.51585
1.36257
1.22446
1.10007
0.988078
0.887282
0.796593
0.715026
0.641685
0.57576
0.516515
0.463285
0.415465
0.37251
0.333923
0.299256
0.268103
0.240096
0.214901
0.192219
0.171776
0.153326
0.136643
0.121526
0.107787
0.0952585
0.083782
0.0732184
0.0634092
0.0542723
0.0455183
0.037402
0.0285817
0.0219743
0.0080373
0.0114745
-0.0448995
0.06623
69.4846
62.6251
51.5426
46.4921
43.1249
38.6385
34.3278
30.8351
27.7914
25.0029
22.4977
20.2701
18.2759
16.4825
14.8693
13.4177
12.1098
10.9305
9.86626
8.90555
8.03791
7.25409
6.54584
5.90579
5.32733
4.80452
4.33203
3.90506
3.51926
3.17073
2.85593
2.57166
2.31502
2.08339
1.8744
1.6859
1.51593
1.36272
1.22467
1.10032
0.988358
0.88758
0.796902
0.71534
0.641999
0.57607
0.516819
0.46358
0.41575
0.372784
0.334186
0.299507
0.268341
0.240322
0.215115
0.192421
0.171967
0.153505
0.136812
0.121684
0.107936
0.0953988
0.0839138
0.0733422
0.0635259
0.0543819
0.045624
0.0374993
0.0286916
0.0220516
0.00826355
0.0114031
-0.0431656
0.063906
61.7617
57.8292
49.4954
44.73
41.5633
37.61
33.6117
30.2617
27.3445
24.6626
22.2313
20.0582
18.1076
16.3484
14.7619
13.3314
12.0405
10.8747
9.82136
8.86941
8.00884
7.23072
6.52708
5.89075
5.3153
4.79493
4.32441
3.89903
3.51452
3.16702
2.85306
2.56946
2.31336
2.08217
1.87352
1.68529
1.51554
1.3625
1.22458
1.10034
0.988454
0.887735
0.797101
0.715569
0.642249
0.576333
0.517088
0.463851
0.41602
0.373049
0.334443
0.299756
0.268581
0.240551
0.215334
0.192629
0.172164
0.153692
0.136988
0.12185
0.108092
0.0955454
0.0840516
0.0734715
0.0636479
0.0544964
0.0457351
0.0376013
0.0288102
0.022132
0.00852769
0.0113115
-0.0410603
0.0610267
54.0859
52.1898
46.4748
42.4034
39.5137
36.1335
32.5672
29.4384
26.6911
24.1561
21.8325
19.7387
17.8509
16.1417
14.5946
13.1955
11.9299
10.7845
9.7478
8.80936
7.95982
7.19072
6.49445
5.86417
5.29366
4.77734
4.31014
3.88748
3.50519
3.15952
2.84704
2.56465
2.30954
2.07915
1.87116
1.68346
1.51413
1.36144
1.2238
1.09978
0.98807
0.887493
0.796969
0.715524
0.642271
0.576406
0.5172
0.463991
0.41618
0.373222
0.334624
0.299941
0.268766
0.240734
0.215514
0.192804
0.172332
0.153853
0.137142
0.121997
0.108231
0.0956767
0.0841756
0.0735886
0.063759
0.0546012
0.0458382
0.0376959
0.028927
0.0222059
0.00882303
0.0111937
-0.0385934
0.0575874
46.6001
45.9916
42.4715
39.3912
36.9255
34.1374
31.1015
28.2919
25.7719
23.4309
21.2578
19.2761
17.4764
15.8379
14.347
12.9929
11.7636
10.6478
9.63519
8.71649
7.88316
7.12742
6.44218
5.82101
5.25805
4.74797
4.28595
3.86756
3.48882
3.14608
2.83602
2.55564
2.30219
2.07316
1.8663
1.67952
1.51096
1.35889
1.22177
1.09816
0.986801
0.886503
0.796207
0.714946
0.641842
0.576097
0.516987
0.463854
0.416103
0.373192
0.334631
0.299975
0.268822
0.240806
0.215596
0.192893
0.172426
0.153949
0.137238
0.122092
0.108324
0.0957675
0.0842636
0.0736734
0.0638414
0.0546802
0.045919
0.0377704
0.029031
0.0222635
0.00914231
0.0110448
-0.0357958
0.0536253
39.2861
39.4664
37.6068
35.6192
33.7412
31.5672
29.127
26.7377
24.5178
22.4256
20.4531
18.6255
16.9469
15.4059
13.9934
12.7022
11.524
10.4498
9.47124
8.58049
7.77019
7.03348
6.36401
5.75592
5.20384
4.70282
4.24835
3.83626
3.46278
3.12442
2.81803
2.54071
2.2898
2.0629
1.85781
1.67251
1.50517
1.35413
1.21785
1.09495
0.98417
0.884355
0.794458
0.713528
0.640696
0.575175
0.516249
0.463267
0.41564
0.37283
0.334351
0.299763
0.268663
0.240691
0.215516
0.192841
0.172396
0.153936
0.137239
0.122103
0.108343
0.0957925
0.0842932
0.0737064
0.0638778
0.0547186
0.0459647
0.0378135
0.029113
0.0222972
0.00947927
0.010863
-0.0327203
0.0492225
32.0649
32.7612
32.0811
31.1051
29.92
28.3889
26.5779
24.6924
22.8524
21.0707
19.3552
17.7318
16.2154
14.8059
13.5001
12.2954
11.1876
10.1711
9.23978
8.38794
7.60976
6.89963
6.2522
5.66244
5.12561
4.63733
4.19349
3.7903
3.42426
3.09215
2.791
2.51806
2.27084
2.04703
1.84453
1.66141
1.4959
1.34638
1.21139
1.08956
0.979682
0.88062
0.791353
0.710948
0.638555
0.5734
0.51478
0.462053
0.414637
0.372003
0.333671
0.299204
0.268206
0.240317
0.215211
0.192593
0.172195
0.153774
0.13711
0.122
0.108262
0.0957295
0.0842454
0.0736712
0.0638544
0.0547044
0.0459652
0.0378171
0.0291661
0.0223019
0.00982914
0.0106496
-0.0294389
0.0445016
24.9126
25.9804
26.1199
25.9697
25.4821
24.604
23.4289
22.0977
20.7074
19.2988
17.8976
16.5329
15.2268
13.9895
12.8253
11.7366
10.7241
9.78585
8.91921
8.12075
7.38676
6.71327
6.09629
5.53187
5.01616
4.5455
4.11639
3.72553
3.36983
3.04638
2.7525
2.48567
2.24358
2.0241
1.82523
1.64517
1.48224
1.33489
1.20172
1.08144
0.972851
0.874879
0.78653
0.706897
0.635153
0.570545
0.512383
0.460042
0.41295
0.370589
0.332485
0.29821
0.267372
0.239618
0.214625
0.192102
0.171784
0.15343
0.136821
0.121759
0.108061
0.0955617
0.0841062
0.0735564
0.0637618
0.0546301
0.0459146
0.0377765
0.0291871
0.0222761
0.0101889
0.0104103
-0.0260366
0.0396115
17.9028
19.242
19.9485
20.4163
20.5412
20.2786
19.7132
18.9457
18.0465
17.0612
16.0253
14.9711
13.9251
12.9048
11.9217
10.9839
10.0965
9.26235
8.48217
7.7556
7.08141
6.45772
5.88224
5.35243
4.86563
4.41913
4.01023
3.63629
3.29477
2.98321
2.69931
2.44086
2.20582
1.99227
1.79839
1.62253
1.46313
1.31877
1.18812
1.06995
0.963158
0.866696
0.779621
0.701064
0.630229
0.566387
0.508872
0.457077
0.410446
0.368473
0.330698
0.296699
0.266095
0.238538
0.213712
0.19133
0.17113
0.152877
0.136353
0.121362
0.107725
0.0952775
0.0838665
0.0733547
0.0635945
0.0544916
0.04581
0.0376903
0.0291753
0.022221
0.0105564
0.0101536
-0.0226027
0.0347098
11.2046
12.7196
13.8051
14.7026
15.3058
15.5678
15.5454
15.3062
14.8973
14.3559
13.7166
13.0115
12.2678
11.5069
10.745
9.99491
9.26606
8.56535
7.89735
7.26497
6.66977
6.1123
5.59232
5.10902
4.6612
4.24737
3.86587
3.5149
3.19266
2.89728
2.62696
2.37993
2.15449
1.94899
1.7619
1.59175
1.43716
1.29685
1.16961
1.05432
0.949948
0.855532
0.770184
0.693085
0.62348
0.560678
0.504042
0.452988
0.406985
0.365543
0.328215
0.294596
0.264312
0.237026
0.21243
0.190242
0.170206
0.152092
0.135686
0.120795
0.107244
0.094869
0.0835203
0.0730622
0.0633498
0.0542877
0.0456512
0.0375591
0.0291319
0.02214
0.0109299
0.0098907
-0.0192228
0.0299438
5.05837
6.64784
7.95393
9.11574
10.0475
10.7067
11.1224
11.3337
11.3678
11.2496
11.0058
10.663
10.2453
9.77346
9.26534
8.73598
8.19779
7.66074
7.13262
6.61932
6.12521
5.65332
5.20569
4.78346
4.38713
4.01669
3.67171
3.3515
3.05512
2.78151
2.52951
2.29788
2.08538
1.89078
1.71286
1.55042
1.40232
1.26747
1.14482
1.03341
0.932299
0.840631
0.7576
0.682453
0.614495
0.553082
0.497619
0.447555
0.402387
0.361651
0.32492
0.291804
0.261947
0.235021
0.210729
0.188799
0.168982
0.151053
0.134803
0.120046
0.106607
0.094329
0.0830631
0.0726759
0.0630265
0.0540182
0.045439
0.037385
0.0290591
0.0220378
0.0113074
0.00963413
-0.0159709
0.0254367
-0.219527
1.33769
2.71856
3.99426
5.10342
6.01275
6.73262
7.2802
7.66766
7.90772
8.0166
8.01222
7.91234
7.73387
7.49265
7.20313
6.87817
6.52897
6.16508
5.79443
5.42354
5.05762
4.70076
4.35606
4.02576
3.71143
3.41405
3.13415
2.87187
2.62707
2.39938
2.18827
1.99307
1.81304
1.64739
1.49529
1.35589
1.22837
1.11189
1.00566
0.908924
0.820933
0.740996
0.668454
0.60269
0.543124
0.489216
0.440463
0.3964
0.356594
0.320648
0.288194
0.258895
0.23244
0.208546
0.186951
0.167418
0.149728
0.133682
0.119096
0.105803
0.0936485
0.0824884
0.072192
0.0626226
0.0536828
0.0451744
0.0371704
0.0289594
0.02192
0.0116862
0.00939774
-0.0129066
0.021281
-4.15982
-2.72828
-1.39827
-0.140564
1.00461
2.01393
2.88757
3.62958
4.24222
4.72938
5.09822
5.35817
5.51981
5.59434
5.59327
5.52804
5.40961
5.24829
5.05348
4.83363
4.59615
4.34744
4.09293
3.83711
3.58367
3.33553
3.09495
2.86366
2.64286
2.43338
2.23571
2.05007
1.87646
1.7147
1.5645
1.42544
1.29705
1.17881
1.07017
0.970535
0.879348
0.796034
0.720033
0.650804
0.587828
0.530608
0.478673
0.431581
0.388915
0.350286
0.315329
0.283708
0.255111
0.229247
0.20585
0.184675
0.165495
0.148103
0.132309
0.117936
0.104823
0.0928215
0.0817917
0.0716068
0.0621351
0.0532793
0.0448553
0.0369142
0.0288306
0.0217882
0.0120551
0.00919197
-0.010085
0.0175429
-6.70155
-5.45097
-4.25257
-3.0996
-2.01724
-1.02102
-0.115207
0.697673
1.41472
2.03459
2.55833
2.98902
3.33123
3.59076
3.7744
3.88962
3.9443
3.94638
3.90369
3.82374
3.71353
3.57952
3.42749
3.26258
3.08923
2.91125
2.73183
2.55358
2.37862
2.20862
2.04483
1.8882
1.73936
1.59871
1.46645
1.34263
1.22717
1.11987
1.02047
0.928664
0.844078
0.766333
0.695028
0.629756
0.570112
0.515698
0.466125
0.42102
0.380026
0.342803
0.309029
0.278403
0.250642
0.225482
0.202678
0.182001
0.163241
0.146203
0.130706
0.116584