/*--------------------------------*- C++ -*----------------------------------*\
  =========                 |
  \\      /  F ield         | OpenFOAM: The Open Source CFD Toolbox
   \\    /   O peration     | Website:  https://openfoam.org
    \\  /    A nd           | Version:  11
     \\/     M anipulation  |
\*---------------------------------------------------------------------------*/
FoamFile
{
    format      ascii;
    class       surfaceScalarField;
    location    "450";
    object      phi;
}
// * * * * * * * * * * * * * * * * * * * * * * * * * * * * * * * * * * * * * //

dimensions      [0 3 -1 0 0 0 0];

internalField   nonuniform List<scalar> 
21876
(
0.00520813
-0.00520273
-4.95334e-06
0.0107845
-0.00557622
0.0164482
-0.00566415
0.0214107
-0.00496324
0.0264977
-0.00508758
0.0306357
-0.00413851
0.0328313
-0.00219599
0.0314868
0.00134434
0.0308387
0.000647835
0.0312991
-0.000460551
0.0326318
-0.00133272
0.0362836
-0.00365191
0.0400443
-0.00376074
0.0424263
-0.002382
0.0396756
0.00275068
0.0322423
0.00743339
0.0212042
0.011038
0.0170762
0.0041281
0.0169791
9.70984e-05
0.0175097
-0.000530563
0.0180588
-0.000549107
0.0184204
-0.000361594
0.0186556
-0.000235187
0.0188963
-0.000240722
0.0191994
-0.000303076
0.0189067
0.000292694
0.0181296
0.000777113
0.0179179
0.000211678
0.0177266
0.000191313
0.0175641
0.00016249
0.0173988
0.000165252
0.0172066
0.000192236
0.0169799
0.000226647
0.0167111
0.000268842
0.0163886
0.000322478
0.0159934
0.000395258
0.0154956
0.000497752
0.0148443
0.000651336
0.0139827
0.000861566
0.0124835
0.00149918
0.00264075
0.00984275
0.00602444
-0.0112265
-1.01417e-06
0.0123686
-0.0119209
0.0187625
-0.0120585
0.0245767
-0.0107775
0.0302294
-0.0107402
0.0348519
-0.00876087
0.0378972
-0.00524112
0.0384425
0.000799249
0.0389188
0.000171648
0.0399934
-0.00153505
0.0417338
-0.00307308
0.0453135
-0.00723163
0.0488628
-0.00731
0.0513007
-0.00481987
0.0508384
0.00321297
0.0472745
0.0109973
0.0389738
0.0193388
0.0330105
0.0100914
0.0296681
0.00343957
0.0277694
0.00136815
0.0268931
0.000327196
0.0265581
-2.65983e-05
0.0264285
-0.000105572
0.0264416
-0.000253804
0.0265927
-0.000454196
0.0263765
0.000508858
0.0257035
0.00145013
0.0253246
0.000590578
0.0249687
0.000547221
0.0246626
0.000468513
0.0243909
0.000436974
0.0241253
0.0004579
0.0238473
0.000504625
0.0235418
0.000574354
0.0231944
0.000669811
0.0227855
0.000804142
0.0222954
0.000987881
0.0216623
0.00128441
0.0209156
0.00160831
0.0196998
0.00271497
0.00530829
0.0170323
0.00703728
-0.0182641
-6.56023e-08
0.0143259
-0.01921
0.0216267
-0.0193594
0.0283607
-0.0175115
0.0347518
-0.0171312
0.0402021
-0.014211
0.0441254
-0.00916434
0.0456876
-0.000762822
0.0468149
-0.000955548
0.0483762
-0.00309631
0.0505848
-0.00528159
0.0543371
-0.010984
0.0581983
-0.0111712
0.0608129
-0.00743445
0.0602429
0.00378304
0.0573836
0.0138566
0.0510964
0.025626
0.0458469
0.0153409
0.0422188
0.00706772
0.0394625
0.00412444
0.03766
0.00212967
0.0366534
0.000980002
0.0360639
0.000483962
0.0357598
5.02222e-05
0.0356588
-0.000353217
0.0352111
0.000956567
0.0343685
0.00229281
0.0338714
0.00108765
0.0334314
0.000987169
0.0330356
0.000864336
0.0326724
0.000800213
0.0323148
0.000815527
0.0319445
0.000874886
0.0315457
0.000973177
0.0311014
0.00111405
0.0305882
0.0013174
0.0299819
0.00159419
0.0292218
0.00204449
0.0283035
0.00252662
0.0270129
0.00400551
0.00782067
0.0245005
0.00826481
-0.0265292
1.0662e-07
0.0166874
-0.0276328
0.0250261
-0.0276982
0.0327575
-0.025243
0.040011
-0.0243846
0.0463321
-0.0205321
0.0512252
-0.0140573
0.0538345
-0.00337213
0.0556555
-0.00277646
0.0577479
-0.00518866
0.0605421
-0.00807573
0.0646168
-0.0150587
0.0687878
-0.0153422
0.0718133
-0.0104599
0.0715303
0.00406605
0.0684435
0.0169435
0.0622999
0.0317696
0.0571792
0.0204615
0.0540471
0.0101999
0.0515938
0.00657773
0.0496743
0.00404921
0.0483885
0.00226574
0.0474987
0.00137376
0.0469167
0.000632196
0.0465801
-1.65723e-05
0.0459447
0.00159194
0.0449171
0.00332046
0.0442423
0.00176243
0.0436913
0.00153816
0.0431959
0.00135968
0.0427404
0.00125579
0.0422957
0.00126016
0.0418397
0.00133091
0.0413541
0.00145876
0.0408201
0.0016481
0.0402117
0.0019258
0.0395006
0.00230531
0.0386288
0.00291625
0.0375669
0.00358849
0.0361761
0.0053963
0.0102858
0.033711
0.00972703
-0.0362565
1.30093e-07
0.0194721
-0.0373782
0.0289964
-0.0372226
0.0378373
-0.0340838
0.0460893
-0.0326366
0.0534012
-0.0278441
0.0593974
-0.0200535
0.0632883
-0.007263
0.0662057
-0.0056939
0.0689945
-0.00797744
0.0723718
-0.011453
0.076721
-0.0194079
0.081107
-0.0197281
0.084493
-0.013846
0.0847739
0.00378516
0.0818175
0.0198999
0.0754546
0.0381324
0.0696364
0.0262798
0.0662911
0.0135452
0.0640695
0.00879931
0.0623658
0.00575287
0.0612211
0.00341045
0.0604015
0.00219339
0.0598064
0.00122723
0.0594097
0.000380115
0.0587351
0.00226657
0.0576398
0.00441573
0.0568419
0.00256035
0.0562051
0.00217497
0.0556278
0.00193704
0.055095
0.00178856
0.0545804
0.00177476
0.0540566
0.00185476
0.0535017
0.00201363
0.0528949
0.00225491
0.0522092
0.00261149
0.0514134
0.00310112
0.0504567
0.00387298
0.0492934
0.00475176
0.0478799
0.00680975
0.0126678
0.0454979
0.0114631
-0.0477199
1.56707e-07
0.022757
-0.0486721
0.0336523
-0.048118
0.0437454
-0.0441769
0.0531369
-0.0420282
0.0615659
-0.0362731
0.0687826
-0.0272702
0.0740847
-0.0125651
0.0783897
-0.00999883
0.0820943
-0.0116821
0.0861638
-0.0155224
0.0908499
-0.024094
0.0954436
-0.0243219
0.0991785
-0.0175808
0.100215
0.00274872
0.0979341
0.0221807
0.0918137
0.0442528
0.0851372
0.0329562
0.080873
0.0178094
0.0782901
0.0113821
0.0764883
0.00755467
0.0753889
0.00450988
0.0747006
0.00288168
0.0742372
0.00169063
0.0739439
0.000673439
0.0734174
0.00279304
0.0724477
0.00538547
0.0716605
0.00334753
0.0710375
0.00279796
0.0704646
0.0025099
0.0699253
0.00232787
0.0694018
0.0022983
0.0688661
0.00239045
0.0682944
0.00258525
0.0676654
0.00288396
0.0669531
0.00332383
0.0661257
0.00392843
0.0651453
0.00485346
0.0639562
0.00594085
0.062625
0.00814092
0.0148443
0.0604486
0.0135308
-0.0612509
1.38534e-07
0.0266536
-0.0617949
0.0391539
-0.0606184
0.0506852
-0.0557082
0.0613819
-0.0527249
0.0710693
-0.0459606
0.0796151
-0.035816
0.086406
-0.019356
0.0923182
-0.015911
0.0972012
-0.0165651
0.102127
-0.0204487
0.107256
-0.0292223
0.112093
-0.0291593
0.116187
-0.021675
0.118068
0.000867923
0.116859
0.0233898
0.111623
0.0494885
0.10453
0.0400493
0.0991851
0.0231545
0.0958473
0.01472
0.093581
0.00982096
0.0922178
0.00587307
0.091434
0.00366546
0.0909737
0.00215092
0.0907183
0.000928814
0.0903289
0.00318251
0.0895427
0.00617163
0.0888377
0.00405254
0.0882982
0.00333741
0.0878124
0.00299573
0.0873474
0.00279286
0.0868913
0.00275439
0.086419
0.00286275
0.085906
0.00309832
0.085331
0.00345896
0.0846713
0.00398345
0.083898
0.00470178
0.0829909
0.00576051
0.0818931
0.00703864
0.0807723
0.00926181
0.0166484
0.0789681
0.0160049
-0.077256
1.27562e-07
0.0313072
-0.0770972
0.0457099
-0.075021
0.0589224
-0.0689208
0.0711272
-0.0649297
0.0822349
-0.0570682
0.0922214
-0.0458025
0.100555
-0.02769
0.108202
-0.0235572
0.114499
-0.0228619
0.120467
-0.0264168
0.126184
-0.0349395
0.13136
-0.0343353
0.135858
-0.0261732
0.138627
-0.00190055
0.138725
0.0232912
0.134964
0.0532493
0.128201
0.0468123
0.122044
0.0293121
0.117831
0.0189328
0.114915
0.0127365
0.113079
0.00770934
0.111982
0.00476295
0.111341
0.00279124
0.110973
0.00129687
0.11058
0.00357527
0.109886
0.00686604
0.109211
0.00472792
0.108704
0.00384358
0.108283
0.00341684
0.107893
0.00318282
0.107519
0.00312863
0.107137
0.00324469
0.106721
0.00351462
0.106248
0.0039319
0.1057
0.0045318
0.105052
0.00534919
0.104307
0.00650592
0.103416
0.00792928
0.102614
0.0100641
0.0179253
0.101337
0.0189797
-0.0962359
9.52562e-08
0.0369004
-0.0950179
0.0535824
-0.091703
0.0687912
-0.0841295
0.0827607
-0.0788992
0.0954847
-0.0697923
0.107039
-0.0573565
0.116967
-0.0376185
0.126384
-0.0329744
0.134261
-0.030739
0.141457
-0.0336125
0.147946
-0.0414284
0.153613
-0.0400023
0.15861
-0.0311704
0.162306
-0.00559627
0.163841
0.021756
0.162006
0.055084
0.156405
0.052414
0.150019
0.0356976
0.145047
0.0239048
0.141451
0.0163329
0.139067
0.010093
0.137537
0.00629263
0.136592
0.00373702
0.136
0.00188841
0.135488
0.00408743
0.134788
0.00756569
0.134079
0.0054369
0.133527
0.00439599
0.133094
0.00384936
0.132719
0.0035582
0.132377
0.00347102
0.132046
0.00357563
0.1317
0.00386027
0.131317
0.00431485
0.130882
0.00496677
0.130379
0.00585236
0.129826
0.00705851
0.129199
0.00855641
0.128742
0.0105217
0.0186167
0.12805
0.0225711
-0.118807
7.86646e-08
0.0436569
-0.116104
0.0630925
-0.111139
0.080699
-0.101736
0.0967587
-0.094959
0.111346
-0.0843794
0.124626
-0.0706366
0.136222
-0.0492148
0.147394
-0.0441459
0.156932
-0.0402768
0.165506
-0.0421873
0.172964
-0.048886
0.179317
-0.0463553
0.184963
-0.0368168
0.189633
-0.010266
0.192653
0.0187363
0.193004
0.0547328
0.189336
0.0560816
0.183564
0.0414698
0.178235
0.0292344
0.174075
0.0204926
0.17117
0.0129974
0.169177
0.00828658
0.16786
0.00505316
0.166985
0.002764
0.166292
0.00478031
0.165535
0.00832218
0.164777
0.00619579
0.164149
0.00502326
0.163661
0.00433803
0.163257
0.00396227
0.162905
0.00382234
0.162586
0.00389465
0.162277
0.00416961
0.161957
0.00463478
0.161616
0.00530728
0.161249
0.00621983
0.160884
0.00742302
0.160527
0.00891378
0.160382
0.0106666
0.0187793
0.160219
0.0269189
-0.145726
3.83558e-08
0.0518456
-0.141031
0.0746247
-0.133918
0.0951331
-0.122244
0.113695
-0.113521
0.130463
-0.101147
0.145684
-0.0858575
0.159072
-0.0626026
0.171982
-0.0570564
0.183199
-0.0514932
0.193247
-0.0522357
0.201854
-0.0574932
0.209103
-0.053604
0.215579
-0.0432923
0.221287
-0.0159749
0.225782
0.0142422
0.228369
0.0521457
0.227198
0.0572521
0.222993
0.0456749
0.218034
0.034193
0.213663
0.0248643
0.210393
0.0162676
0.207998
0.0106814
0.206313
0.00673775
0.205137
0.00394
0.204242
0.00567509
0.203409
0.00915587
0.202613
0.00699134
0.201932
0.00570444
0.201393
0.00487669
0.200963
0.00439302
0.200606
0.00417879
0.200303
0.00419749
0.200036
0.00443714
0.199788
0.00488264
0.199555
0.00554025
0.199341
0.00643416
0.19918
0.00758384
0.199102
0.00899166
0.199257
0.0105114
0.0185023
0.199534
0.0321912
-0.177917
1.61972e-08
0.0617875
-0.170627
0.0886375
-0.160768
0.112673
-0.14628
0.134257
-0.135105
0.153616
-0.120506
0.171075
-0.103317
0.186454
-0.0779816
0.201146
-0.0717487
0.214052
-0.0643994
0.225625
-0.0638084
0.235526
-0.0673938
0.243864
-0.061942
0.251346
-0.0507748
0.258174
-0.0228031
0.264108
0.00830859
0.268808
0.0474458
0.270369
0.0556905
0.268551
0.0474935
0.264914
0.0378299
0.26099
0.0287877
0.257721
0.0195375
0.255138
0.0132641
0.253196
0.00868009
0.251772
0.00536314
0.250703
0.00674492
0.249803
0.0100556
0.249
0.00779404
0.248315
0.00638963
0.247772
0.0054197
0.247355
0.00481039
0.247035
0.00449846
0.246793
0.00443905
0.246616
0.00461434
0.246494
0.00500505
0.246426
0.00560752
0.246425
0.00643511
0.246526
0.00748347
0.246769
0.00874843
0.24726
0.0100205
0.0178263
0.247936
0.0385895
-0.216507
1.64879e-09
0.073867
-0.205904
0.105679
-0.19258
0.134014
-0.174615
0.159267
-0.160358
0.181744
-0.142984
0.201847
-0.12342
0.21952
-0.095654
0.23614
-0.0883686
0.250803
-0.0790629
0.263953
-0.0769579
0.275261
-0.0787022
0.284852
-0.0715329
0.293497
-0.0594193
0.301523
-0.0308297
0.30886
0.000972054
0.315464
0.0408413
0.319671
0.0514841
0.320698
0.0464663
0.319284
0.0392439
0.316695
0.0313768
0.314045
0.0221876
0.311698
0.0156108
0.30978
0.0105976
0.308291
0.00685241
0.307164
0.00787202
0.306273
0.0109462
0.305528
0.00853964
0.304916
0.00700123
0.304449
0.00588657
0.304121
0.00513854
0.303914
0.00470596
0.303812
0.00454113
0.303806
0.00461988
0.303894
0.00491741
0.30408
0.00542146
0.30438
0.00613518
0.304826
0.00703747
0.305458
0.00811575
0.30635
0.00912848
0.0167272
0.307449
0.0463589
-0.262866
-3.22155e-09
0.0885505
-0.248096
0.126414
-0.230443
0.159993
-0.208194
0.189721
-0.190086
0.215987
-0.16925
0.239274
-0.146707
0.259667
-0.116047
0.278495
-0.107197
0.295093
-0.0956601
0.309933
-0.0917979
0.322771
-0.0915409
0.333762
-0.0825238
0.3437
-0.0693572
0.352994
-0.0401241
0.361714
-0.00774728
0.37001
0.0325445
0.376575
0.0449191
0.38049
0.042552
0.381869
0.037864
0.381473
0.0317737
0.380221
0.0234387
0.378739
0.0170934
0.377331
0.0120057
0.376136
0.00804761
0.375214
0.00879333
0.374522
0.0116384
0.373978
0.00908383
0.373573
0.00740633
0.373312
0.00614777
0.373195
0.00525494
0.373217
0.00468432
0.373369
0.00438881
0.373649
0.00433983
0.374059
0.00450733
0.374609
0.00487225
0.375314
0.00543007
0.376202
0.00614912
0.377306
0.00701141
0.378676
0.00775887
0.0151407
0.380263
0.0558019
-0.318668
-4.22558e-09
0.106411
-0.298705
0.151657
-0.275688
0.19164
-0.248178
0.226839
-0.225285
0.257737
-0.200148
0.284908
-0.173878
0.308596
-0.139735
0.330068
-0.128668
0.348916
-0.114508
0.365669
-0.108551
0.380218
-0.10609
0.392775
-0.0950813
0.404141
-0.0807227
0.414783
-0.0507662
0.424882
-0.0178462
0.434712
0.0227148
0.443309
0.036322
0.449861
0.0359997
0.454173
0.0335517
0.45653
0.0294167
0.457397
0.022572
0.457486
0.0170041
0.457218
0.0122741
0.456848
0.00841812
0.456562
0.00907891
0.456409
0.0117916
0.456337
0.00915597
0.456368
0.00737471
0.456521
0.005995
0.456808
0.0049681
0.457236
0.00425655
0.457808
0.00381625
0.458531
0.00361747
0.459411
0.00362724
0.46046
0.00382242
0.461696
0.00419413
0.46314
0.00470535
0.464815
0.00533636
0.466753
0.005821
0.0129778
0.468916
0.0672909
-0.385958
-3.08119e-09
0.128157
-0.359572
0.182414
-0.329945
0.230228
-0.295991
0.272128
-0.267185
0.308709
-0.236729
0.340653
-0.205822
0.368381
-0.167463
0.393103
-0.15339
0.414681
-0.136085
0.433713
-0.127584
0.450253
-0.12263
0.464607
-0.109435
0.477574
-0.0936904
0.489682
-0.0628738
0.501197
-0.0293615
0.512485
0.0114274
0.522861
0.0259457
0.531712
0.0271486
0.538779
0.0264853
0.54406
0.0241356
0.547501
0.0191305
0.549757
0.0147478
0.551259
0.0107726
0.552319
0.00735789
0.553216
0.00818188
0.554078
0.0109301
0.554886
0.00834784
0.555708
0.0065521
0.556591
0.00511267
0.557566
0.00399245
0.55866
0.00316283
0.55989
0.00258604
0.561273
0.00223518
0.562822
0.00207809
0.564553
0.00209106
0.566483
0.00226453
0.568628
0.00256027
0.571004
0.00295981
0.573631
0.0031941
0.0101203
0.576489
0.0812805
-0.467239
-6.61515e-10
0.154653
-0.432945
0.219921
-0.395213
0.277318
-0.353388
0.327441
-0.317308
0.371012
-0.280299
0.408845
-0.243655
0.44156
-0.200179
0.470331
-0.182161
0.495293
-0.161047
0.517132
-0.149423
0.536078
-0.141576
0.552557
-0.125914
0.567384
-0.108517
0.58115
-0.07664
0.594202
-0.0424138
0.606977
-0.00134719
0.619009
0.0139136
0.629886
0.0162714
0.639416
0.016955
0.647503
0.0160486
0.653661
0.0129733
0.658428
0.00998024
0.662171
0.0070301
0.665195
0.00433387
0.667817
0.00555928
0.670216
0.00853148
0.672394
0.00616947
0.674459
0.00448703
0.676487
0.00308547
0.678534
0.00194539
0.680645
0.00105121
0.682856
0.000375213
0.685194
-0.00010268
0.687682
-0.000409833
0.69034
-0.000566834
0.693185
-0.000580673
0.696233
-0.000487376
0.699495
-0.000302107
0.702982
-0.000293229
0.00640376
0.706698
0.0890519
-0.556291
2.25504e-10
0.169354
-0.513247
0.240681
-0.466539
0.303311
-0.416018
0.357867
-0.371864
0.405143
-0.327576
0.446022
-0.284533
0.481266
-0.235423
0.511941
-0.212835
0.538417
-0.187524
0.561412
-0.172419
0.581301
-0.161465
0.598603
-0.143215
0.614088
-0.124003
0.628374
-0.0909259
0.641848
-0.0558875
0.654963
-0.0144617
0.66743
0.00144652
0.679029
0.00467205
0.689686
0.00629764
0.699335
0.00639966
0.707268
0.00504049
0.713897
0.00335148
0.719478
0.0014485
0.724254
-0.000441655
0.72851
0.00130355
0.732424
0.00461753
0.736002
0.00259064
0.739363
0.00112662
0.742592
-0.000143581
0.745759
-0.0012217
0.74892
-0.00210945
0.752118
-0.00282319
0.75539
-0.00337426
0.758763
-0.00378301
0.762261
-0.00406459
0.765901
-0.00422141
0.769699
-0.00428548
0.773665
-0.00426776
0.777806
-0.00443374
0.00205992
0.782149
0.0956821
-0.651973
7.21353e-10
0.181899
-0.599464
0.258405
-0.543045
0.325513
-0.483126
0.38387
-0.430222
0.434329
-0.378035
0.477832
-0.328036
0.515256
-0.272847
0.547589
-0.245169
0.575383
-0.215318
0.599382
-0.196417
0.620072
-0.182154
0.638047
-0.16119
0.654048
-0.140004
0.668714
-0.105592
0.682464
-0.0696378
0.695764
-0.0277609
0.708441
-0.0112304
0.720399
-0.00728685
0.731662
-0.00496466
0.742224
-0.00416216
0.751291
-0.00402695
0.759204
-0.00456197
0.766145
-0.00549213
0.772294
-0.00659096
0.777894
-0.00429608
0.783105
-0.000592992
0.787927
-0.00223178
0.792471
-0.00341758
0.796823
-0.004495
0.801052
-0.00545091
0.805217
-0.00627439
0.809364
-0.00697092
0.813533
-0.00754296
0.817753
-0.00800328
0.82205
-0.00836085
0.826441
-0.0086128
0.830942
-0.0087864
0.835562
-0.00888824
0.840308
-0.00917975
-0.00286053
0.845229
0.102951
-0.754924
1.71466e-09
0.195669
-0.692182
0.277889
-0.625265
0.349959
-0.555196
0.412558
-0.49282
0.466603
-0.43208
0.513099
-0.374532
0.553034
-0.312782
0.587358
-0.279493
0.616773
-0.244733
0.642056
-0.2217
0.663787
-0.203885
0.682632
-0.180036
0.699324
-0.156696
0.714533
-0.1208
0.728708
-0.0838128
0.742328
-0.0413813
0.755301
-0.024203
0.767613
-0.0195995
0.779359
-0.0167106
0.790594
-0.0153972
0.800492
-0.0139251
0.809366
-0.0134353
0.817354
-0.0134808
0.824601
-0.0138374
0.83131
-0.0110057
0.837625
-0.00690732
0.843537
-0.008144
0.849145
-0.0090258
0.854528
-0.00987733
0.85975
-0.0106736
0.864869
-0.011393
0.869929
-0.0120315
0.87497
-0.0125833
0.88002
-0.0130538
0.885106
-0.013446
0.890244
-0.0137517
0.895452
-0.0139935
0.900737
-0.0141738
0.906107
-0.0145492
-0.00837913
0.911625
0.110899
-0.865823
2.12016e-09
0.210736
-0.792019
0.299232
-0.713761
0.376766
-0.63273
0.444055
-0.56011
0.502088
-0.490113
0.551942
-0.424386
0.594708
-0.355548
0.63133
-0.316115
0.662639
-0.276042
0.689455
-0.248517
0.712443
-0.226873
0.73234
-0.199932
0.749884
-0.17424
0.765784
-0.136701
0.780523
-0.0985524
0.794602
-0.0554594
0.807975
-0.0375767
0.820692
-0.0323165
0.832901
-0.0289193
0.844708
-0.0272045
0.855277
-0.0244935
0.864914
-0.0230724
0.873741
-0.0223082
0.88188
-0.021976
0.88951
-0.0186363
0.896759
-0.0141559
0.903612
-0.0149967
0.910155
-0.0155695
0.91646
-0.0161818
0.922585
-0.0167989
0.928582
-0.0173903
0.934494
-0.0179435
0.940356
-0.0184454
0.946198
-0.018895
0.952041
-0.0192895
0.957905
-0.019616
0.963804
-0.0198926
0.969749
-0.0201179
0.975743
-0.0205434
-0.0145017
0.981865
0.119575
-0.985398
2.91065e-09
0.227195
-0.899639
0.322562
-0.809129
0.406089
-0.716257
0.478539
-0.63256
0.540976
-0.552549
0.594556
-0.477966
0.640477
-0.401468
0.679694
-0.355332
0.71316
-0.309509
0.741746
-0.277102
0.766194
-0.251321
0.787314
-0.221052
0.805864
-0.19279
0.822597
-0.153434
0.838033
-0.113989
0.852697
-0.0701234
0.866581
-0.0514607
0.879777
-0.0455124
0.892478
-0.0416197
0.904832
-0.039559
0.915998
-0.0356593
0.92629
-0.0333645
0.935825
-0.0318434
0.944715
-0.0308654
0.953124
-0.027046
0.961171
-0.0222021
0.968835
-0.0226612
0.976196
-0.0229303
0.983316
-0.0233015
0.990248
-0.0237316
0.99704
-0.0241822
1.00373
-0.0246336
1.01035
-0.0250662
1.01693
-0.025473
1.02349
-0.0258464
1.03004
-0.0261691
1.0366
-0.026455
1.04318
-0.0266996
1.04979
-0.0271487
-0.0212194
1.05651
0.12904
-1.11444
3.57283e-09
0.245158
-1.01576
0.348036
-0.912007
0.438122
-0.806343
0.516232
-0.71067
0.583511
-0.619828
0.641202
-0.535657
0.690612
-0.450878
0.732725
-0.397445
0.768612
-0.345396
0.799198
-0.307688
0.825305
-0.277429
0.847817
-0.243564
0.867521
-0.212493
0.885222
-0.171135
0.901479
-0.130246
0.916848
-0.0854921
0.931347
-0.0659594
0.945102
-0.0592679
0.958345
-0.0548623
0.97126
-0.0524743
0.983
-0.0473994
0.993894
-0.0442583
1.00406
-0.0420103
1.01361
-0.0404143
1.0227
-0.0361364
1.03144
-0.0309452
1.03982
-0.0310363
1.0479
-0.0310099
1.05574
-0.0311427
1.06339
-0.0313838
1.0709
-0.0316877
1.07829
-0.0320278
1.0856
-0.0323788
1.09286
-0.0327285
1.10008
-0.0330643
1.10727
-0.0333654
1.11446
-0.0336421
1.12165
-0.0338866
1.12884
-0.0343393
-0.0285108
1.13613
0.139362
-1.2538
4.04827e-09
0.264753
-1.14115
0.375833
-1.02309
0.473089
-0.903598
0.557394
-0.794976
0.629983
-0.692417
0.692193
-0.597868
0.745446
-0.504131
0.790768
-0.442766
0.829344
-0.383972
0.862165
-0.340509
0.890133
-0.305397
0.914206
-0.267637
0.935212
-0.233499
0.954014
-0.189937
0.971211
-0.147443
0.987396
-0.101677
1.00261
-0.0811715
1.017
-0.0736631
1.03085
-0.0687046
1.04435
-0.0659812
1.05667
-0.0597169
1.06814
-0.0557322
1.0789
-0.0527668
1.08905
-0.0505652
1.09876
-0.0458403
1.10812
-0.0403119
1.11713
-0.0400444
1.12585
-0.0397287
1.13433
-0.0396263
1.14263
-0.0396785
1.15077
-0.0398329
1.1588
-0.0400563
1.16674
-0.040318
1.17461
-0.0406008
1.18244
-0.040888
1.19023
-0.0411551
1.19799
-0.041409
1.20575
-0.0416394
1.21349
-0.0420808
-0.0363453
1.22132
0.150618
-1.40442
3.83582e-09
0.286125
-1.27665
0.406159
-1.14312
0.511246
-1.00869
0.602327
-0.886056
0.68073
-0.77082
0.747898
-0.665036
0.805371
-0.561605
0.854231
-0.491625
0.89578
-0.425521
0.931079
-0.375809
0.961114
-0.335432
0.986924
-0.293447
1.00938
-0.255958
1.02942
-0.20997
1.04767
-0.165698
1.06478
-0.118786
1.0808
-0.0971902
1.09591
-0.0887746
1.11041
-0.0832045
1.12454
-0.0801167
1.13745
-0.0726269
1.1495
-0.0677816
1.16083
-0.0640911
1.17154
-0.061282
1.18182
-0.0561114
1.19175
-0.0502488
1.20133
-0.0496256
1.21063
-0.0490229
1.21969
-0.0486865
1.22856
-0.0485493
1.23728
-0.0485518
1.24588
-0.0486547
1.25438
-0.0488218
1.26281
-0.049031
1.27118
-0.0492615
1.27951
-0.0494858
1.28781
-0.0497073
1.29609
-0.0499133
1.30434
-0.0503324
-0.0446855
1.31268
0.162895
-1.56731
4.57946e-09
0.309438
-1.4232
0.439245
-1.27293
0.552885
-1.12233
0.651371
-0.984542
0.736136
-0.855585
0.808735
-0.737634
0.870837
-0.623707
0.923587
-0.544375
0.96841
-0.470344
1.00645
-0.413844
1.03876
-0.367752
1.06649
-0.321175
1.09056
-0.280024
1.11196
-0.231369
1.13139
-0.185126
1.14952
-0.136921
1.16644
-0.114104
1.18234
-0.104675
1.19755
-0.0984175
1.21235
-0.0949179
1.22587
-0.0861489
1.2385
-0.0804093
1.25038
-0.0759712
1.26164
-0.0725398
1.27244
-0.0669152
1.28291
-0.0607142
1.29301
-0.0597313
1.30283
-0.0588389
1.31241
-0.058266
1.3218
-0.0579367
1.33103
-0.0577844
1.34014
-0.057763
1.34915
-0.0578308
1.35808
-0.057961
1.36694
-0.0581288
1.37576
-0.0583034
1.38454
-0.0584853
1.39329
-0.0586592
1.402
-0.0590477
-0.0534876
1.4108
0.17629
-1.7436
4.45982e-09
0.334877
-1.58179
0.47535
-1.4134
0.598332
-1.24531
0.704911
-1.09112
0.796635
-0.94731
0.875181
-0.81618
0.942355
-0.69088
0.999375
-0.601395
1.0478
-0.518766
1.08884
-0.454891
1.12368
-0.402587
1.15352
-0.351015
1.17936
-0.305861
1.20226
-0.254273
1.22298
-0.205846
1.24224
-0.156186
1.26014
-0.132
1.2769
-0.121432
1.29287
-0.114395
1.30837
-0.110418
1.32253
-0.100301
1.33574
-0.0936193
1.34816
-0.0883979
1.35994
-0.0843181
1.37125
-0.0782222
1.38221
-0.0716714
1.39279
-0.0703181
1.40308
-0.069128
1.41313
-0.0683121
1.42298
-0.0677853
1.43266
-0.067473
1.44222
-0.0673223
1.45168
-0.067286
1.46105
-0.067332
1.47035
-0.0674318
1.4796
-0.0675513
1.4888
-0.0676877
1.49797
-0.0678236
1.5071
-0.068175
-0.062702
1.51631
0.19091
-1.93451
5.43288e-09
0.362645
-1.75352
0.514767
-1.56552
0.647952
-1.37849
0.763378
-1.20655
0.862714
-1.04665
0.94777
-0.901236
1.0205
-0.76361
1.0822
-0.6631
1.13458
-0.571137
1.17893
-0.499246
1.21653
-0.440186
1.24869
-0.383175
1.27647
-0.33364
1.30102
-0.278824
1.32315
-0.227979
1.34365
-0.176682
1.36261
-0.150959
1.38029
-0.139111
1.39707
-0.131182
1.4133
-0.126646
1.4281
-0.115098
1.44189
-0.107412
1.45485
-0.10136
1.46713
-0.0965953
1.47891
-0.0900025
1.49032
-0.0830838
1.50135
-0.0813427
1.51206
-0.0798413
1.52252
-0.0787717
1.53277
-0.0780386
1.54286
-0.0775588
1.55281
-0.0772723
1.56265
-0.0771257
1.5724
-0.0770821
1.58208
-0.0771086
1.59169
-0.0771677
1.60126
-0.0772535
1.61078
-0.0773463
1.62026
-0.0776552
-0.0722713
1.62983
0.206879
-2.14139
5.4151e-09
0.392973
-1.93961
0.557821
-1.73037
0.702157
-1.52283
0.827256
-1.33164
0.934921
-1.15431
1.0271
-0.993418
1.10592
-0.842424
1.17276
-0.729943
1.22946
-0.627841
1.27745
-0.547232
1.31808
-0.480819
1.35278
-0.417876
1.38269
-0.363546
1.40904
-0.305176
1.43271
-0.251649
1.45454
-0.198513
1.47465
-0.171064
1.49331
-0.157769
1.51094
-0.148818
1.52792
-0.143622
1.54337
-0.130547
1.55774
-0.121783
1.57122
-0.114842
1.58397
-0.109345
1.59619
-0.102221
1.60801
-0.0949099
1.61943
-0.092757
1.63051
-0.0909256
1.64133
-0.0895871
1.65192
-0.0886352
1.66234
-0.0879776
1.67262
-0.0875466
1.68277
-0.0872824
1.69283
-0.0871426
1.70281
-0.0870898
1.71273
-0.0870831
1.72259
-0.0871134
1.7324
-0.0871584
1.74217
-0.0874199
-0.0821287
1.75202
0.224329
-2.36572
6.35333e-09
0.426117
-2.1414
0.604875
-1.90913
0.761406
-1.67936
0.897086
-1.46733
1.01387
-1.27109
1.11386
-1.09341
1.19934
-0.927906
1.27181
-0.802417
1.33327
-0.689297
1.38524
-0.5992
1.4292
-0.524777
1.46668
-0.455359
1.49891
-0.395775
1.52722
-0.333489
1.55256
-0.276988
1.57583
-0.221783
1.59716
-0.192393
1.61685
-0.177464
1.63537
-0.167337
1.65311
-0.161357
1.66921
-0.146646
1.68414
-0.136718
1.69812
-0.128816
1.7113
-0.122531
1.72392
-0.114835
1.7361
-0.1071
1.74785
-0.104504
1.75925
-0.102319
1.77035
-0.100692
1.78122
-0.0995047
1.7919
-0.0986561
1.80242
-0.0980695
1.81282
-0.0976785
1.82311
-0.0974345
1.83331
-0.0972956
1.84345
-0.0972174
1.85352
-0.0971868
1.86354
-0.0971793
1.87351
-0.0973888
-0.0921946
1.88358
0.243413
-2.60913
6.37174e-09
0.462364
-2.36035
0.656339
-2.1031
0.826212
-1.84923
0.973477
-1.61459
1.10024
-1.39786
1.20878
-1.20195
1.30157
-1.0207
1.38023
-0.88107
1.44689
-0.755965
1.50323
-0.655537
1.55083
-0.572381
1.59136
-0.495887
1.62613
-0.430542
1.65658
-0.363937
1.68372
-0.304131
1.70854
-0.2466
1.73117
-0.215025
1.75195
-0.198244
1.77138
-0.186762
1.78987
-0.179851
1.80661
-0.163382
1.82208
-0.15219
1.83651
-0.143247
1.85008
-0.136106
1.86304
-0.127788
1.87553
-0.11959
1.88754
-0.116516
1.89917
-0.113946
1.91048
-0.112005
1.92154
-0.110564
1.93239
-0.109507
1.94307
-0.108752
1.95362
-0.108222
1.96405
-0.107865
1.97438
-0.107632
1.98464
-0.107475
1.99483
-0.107378
2.00497
-0.107313
2.01504
-0.107466
-0.102374
2.02522
0.264301
-2.87343
6.94946e-09
0.502036
-2.59809
0.712667
-2.31374
0.897151
-2.03372
1.05711
-1.77454
1.19481
-1.53556
1.31273
-1.31987
1.41354
-1.1215
1.49897
-0.966502
1.57136
-0.828354
1.63249
-0.716666
1.68409
-0.623979
1.72795
-0.539747
1.76548
-0.468078
1.79825
-0.396703
1.82734
-0.333224
1.85381
-0.273074
1.87783
-0.239036
1.89974
-0.220154
1.92008
-0.207108
1.93932
-0.199092
1.95667
-0.18073
1.97264
-0.16816
1.98747
-0.15808
2.00137
-0.150007
2.01459
-0.141008
2.02731
-0.132303
2.0395
-0.128705
2.05127
-0.125715
2.06269
-0.123432
2.07384
-0.121711
2.08476
-0.120427
2.09549
-0.119486
2.10608
-0.118805
2.11653
-0.118322
2.12689
-0.117986
2.13715
-0.117743
2.14735
-0.117573
2.15748
-0.117445
2.16755
-0.117536
-0.112553
2.17773
0.287181
-3.16062
6.97466e-09
0.545492
-2.8564
0.774373
-2.54262
0.974868
-2.23421
1.14874
-1.94841
1.29844
-1.68527
1.42666
-1.44808
1.53626
-1.2311
1.62913
-1.05938
1.7078
-0.907022
1.77419
-0.783054
1.83017
-0.679958
1.87768
-0.587252
1.91823
-0.508633
1.95351
-0.431986
1.98471
-0.364419
2.01295
-0.301316
2.03842
-0.2645
2.06149
-0.243231
2.08276
-0.22838
2.10272
-0.219051
2.12064
-0.198646
2.13705
-0.184569
2.15222
-0.173246
2.16636
-0.164151
2.17976
-0.154403
2.19259
-0.145138
2.20485
-0.140965
2.21665
-0.137513
2.22807
-0.134853
2.23918
-0.132824
2.25005
-0.131289
2.2607
-0.130142
2.27119
-0.129293
2.28154
-0.128672
2.29177
-0.128221
2.30191
-0.127883
2.31197
-0.127632
2.32196
-0.127435
2.33189
-0.127459
-0.122592
2.34193
0.312267
-3.47288
7.10138e-09
0.593137
-3.13727
0.842028
-2.79151
1.06009
-2.45227
1.24922
-2.13754
1.41211
-1.84816
1.55162
-1.5876
1.67089
-1.35037
1.77194
-1.16043
1.85751
-0.992589
1.92967
-0.855218
1.99046
-0.740742
2.04195
-0.638746
2.0858
-0.552483
2.12381
-0.470001
2.15727
-0.397878
2.1874
-0.331445
2.21439
-0.291488
2.23866
-0.267506
2.26085
-0.250566
2.28148
-0.239683
2.29991
-0.217068
2.31668
-0.201339
2.33208
-0.188652
2.34636
-0.178433
2.35982
-0.167858
2.37265
-0.157971
2.38485
-0.153165
2.39654
-0.149202
2.40781
-0.146124
2.41874
-0.143753
2.42939
-0.141938
2.43981
-0.140563
2.45004
-0.139526
2.46012
-0.138752
2.47008
-0.138173
2.47992
-0.13773
2.48968
-0.13739
2.49936
-0.137117
2.50897
-0.137068
-0.132323
2.5187
0.339797
-3.81268
6.9558e-09
0.645423
-3.4429
0.916278
-3.06236
1.15362
-2.68961
1.35952
-2.34345
1.53688
-2.02552
1.68882
-1.73954
1.81872
-1.48027
1.92876
-1.27048
2.02192
-1.08574
2.10043
-0.933728
2.16648
-0.806799
2.22235
-0.694609
2.26979
-0.599927
2.31077
-0.510979
2.34666
-0.433772
2.37879
-0.363577
2.40737
-0.320068
2.43286
-0.292996
2.45594
-0.273642
2.47718
-0.260919
2.49602
-0.235913
2.51305
-0.218366
2.52857
-0.204177
2.54286
-0.192721
2.55623
-0.181229
2.56891
-0.170649
2.58088
-0.16514
2.59229
-0.16061
2.60323
-0.157067
2.6138
-0.154315
2.62405
-0.152189
2.63404
-0.150558
2.64383
-0.149312
2.65344
-0.148365
2.66291
-0.147644
2.67226
-0.147082
2.68152
-0.146643
2.69069
-0.146286
2.69978
-0.146157
-0.141545
2.709
0.370039
-4.18272
6.68794e-09
0.70286
-3.77572
0.997847
-3.35735
1.25638
-2.94815
1.48072
-2.56778
1.674
-2.21881
1.83961
-1.90515
1.9812
-1.62185
2.10115
-1.39042
2.20265
-1.18724
2.28814
-1.01922
2.35999
-0.878647
2.42063
-0.755257
2.472
-0.651292
2.51619
-0.555172
2.5547
-0.472284
2.58896
-0.397836
2.6192
-0.350304
2.64591
-0.31971
2.66983
-0.297561
2.69158
-0.282664
2.71073
-0.255065
2.72788
-0.235517
2.74337
-0.219671
2.7575
-0.206846
2.77061
-0.194335
2.78294
-0.182981
2.79449
-0.176692
2.80541
-0.171529
2.81581
-0.167467
2.82578
-0.164289
2.83541
-0.161813
2.84475
-0.159896
2.85385
-0.158414
2.86276
-0.157273
2.87151
-0.156393
2.88012
-0.155699
2.88863
-0.15515
2.89704
-0.1547
2.90537
-0.154484
-0.150012
2.91384
0.403296
-4.58601
6.39235e-09
0.766022
-4.13844
1.08755
-3.67888
1.3694
-3.22999
1.61402
-2.81241
1.82484
-2.42963
2.00551
-2.08581
2.15998
-1.77633
2.29084
-1.52127
2.40153
-1.29794
2.4947
-1.11239
2.57292
-0.956861
2.63881
-0.821152
2.69446
-0.706941
2.74214
-0.602851
2.78346
-0.513608
2.81997
-0.434345
2.85192
-0.382252
2.87985
-0.347638
2.90454
-0.322256
2.92667
-0.304793
2.94599
-0.274381
2.9631
-0.252624
2.97837
-0.234945
2.99213
-0.220603