/*--------------------------------*- C++ -*----------------------------------*\
  =========                 |
  \\      /  F ield         | OpenFOAM: The Open Source CFD Toolbox
   \\    /   O peration     | Website:  https://openfoam.org
    \\  /    A nd           | Version:  11
     \\/     M anipulation  |
\*---------------------------------------------------------------------------*/
FoamFile
{
    format      ascii;
    class       volVectorField;
    location    "450";
    object      U;
}
// * * * * * * * * * * * * * * * * * * * * * * * * * * * * * * * * * * * * * //

dimensions      [0 1 -1 0 0 0 0];

internalField   nonuniform List<vector> 
11040
(
(1.62177 2.09396 7.55341e-18)
(2.19254 6.41661 -1.65466e-17)
(3.78852 10.8827 -1.80046e-17)
(6.36249 14.7416 2.29652e-17)
(9.63219 17.9372 -1.18076e-17)
(13.6797 20.2064 4.31704e-18)
(18.1187 21.1093 0)
(21.2674 19.2179 -6.99046e-18)
(22.5591 16.5611 0)
(23.4497 15.0944 -1.51018e-17)
(24.6092 14.8345 0)
(26.6946 15.8875 0)
(30.2452 17.0555 3.42751e-17)
(34.9034 16.871 0)
(37.899 13.1925 0)
(36.6837 6.79169 0)
(28.8893 -0.667904 0)
(21.4071 -4.46432 5.94231e-17)
(18.8606 -4.83993 4.65313e-17)
(18.9824 -4.24428 -3.69595e-17)
(19.3648 -3.85244 3.11608e-17)
(19.3831 -3.65593 -8.97744e-19)
(19.2278 -3.5313 -2.38198e-17)
(19.0627 -3.43711 2.64889e-19)
(19.0274 -3.36816 0)
(18.8755 -3.46179 0)
(18.0579 -3.64823 0)
(17.2752 -3.64539 0)
(16.7829 -3.54847 2.05881e-17)
(16.4252 -3.45181 0)
(16.0644 -3.36251 0)
(15.6813 -3.27336 5.24978e-20)
(15.2859 -3.1829 1.36324e-20)
(14.8745 -3.09069 -1.38684e-20)
(14.4347 -2.99427 1.08718e-18)
(13.9566 -2.89083 -3.18654e-18)
(13.4116 -2.77457 -5.32386e-18)
(12.8042 -2.64379 -6.19812e-20)
(11.9752 -2.47231 3.71142e-20)
(11.2458 -2.2542 0)
(8.53753 -2.03196 1.92523e-17)
(2.78969 1.9864 -1.16126e-18)
(3.50736 5.94544 -6.78352e-19)
(5.26167 9.85307 -1.1313e-17)
(8.01548 13.1779 -4.59455e-18)
(11.3959 15.8455 0)
(15.5952 17.519 1.09382e-18)
(20.0828 17.723 4.27899e-19)
(24.0458 16.2439 2.27489e-18)
(25.7483 14.7636 -9.78437e-18)
(26.3186 14.3241 -9.89775e-20)
(27.0795 14.5762 -2.3379e-19)
(28.7005 15.6324 7.91896e-19)
(32.0286 15.9715 0)
(36.5438 14.2191 0)
(40.7773 9.26388 0)
(43.1239 3.60229 9.19563e-18)
(39.9555 -2.57778 1.83021e-18)
(33.2533 -4.69665 -3.19309e-17)
(27.9674 -4.33608 -2.08451e-17)
(25.2289 -3.9687 -4.73537e-19)
(23.891 -3.86866 -1.73083e-17)
(23.0501 -3.78747 1.56277e-17)
(22.4475 -3.70239 -4.71556e-19)
(22.0028 -3.64379 -9.01128e-20)
(21.7396 -3.62355 -1.16488e-17)
(21.4965 -3.81698 3.25459e-19)
(20.9157 -4.08 -1.01671e-17)
(20.1105 -3.9666 -1.09492e-19)
(19.4833 -3.82213 -6.1691e-18)
(18.9848 -3.72519 0)
(18.5236 -3.63881 0)
(18.0781 -3.55039 -5.8068e-18)
(17.645 -3.46118 3.64494e-20)
(17.214 -3.37043 5.81501e-19)
(16.7708 -3.27456 -5.51922e-20)
(16.3067 -3.1707 0)
(15.7975 -3.05367 3.24577e-18)
(15.26 -2.9211 -1.54323e-20)
(14.5359 -2.74631 -6.18201e-18)
(14.0263 -2.52689 0)
(12.1217 -2.28603 -1.97502e-17)
(4.43196 1.81293 0)
(5.14854 5.41538 4.83139e-18)
(6.71622 8.92254 3.85549e-18)
(9.05441 11.9941 1.01069e-17)
(11.9669 14.4907 -5.62934e-19)
(15.5026 16.2062 4.45298e-18)
(19.3028 16.8299 -5.21072e-19)
(22.6212 16.1277 9.25099e-19)
(24.5726 15.1741 1.71491e-18)
(25.6807 14.7776 -7.67552e-18)
(26.8615 14.8011 0)
(28.7137 15.3557 -8.61383e-19)
(31.8294 15.3648 1.61849e-17)
(35.8909 13.8266 -2.12606e-17)
(39.4464 9.55218 0)
(41.4872 4.27797 -7.30965e-18)
(40.7492 -1.85062 1.37982e-18)
(36.878 -4.45661 2.04443e-17)
(32.6856 -4.68083 -1.74574e-17)
(29.7002 -4.53841 1.42233e-17)
(27.7393 -4.42446 1.19948e-17)
(26.3496 -4.28187 -1.0832e-17)
(25.3445 -4.14859 0)
(24.6071 -4.05915 9.45739e-18)
(24.1154 -4.01688 8.9206e-18)
(23.6696 -4.16416 -5.05242e-19)
(22.9454 -4.3768 7.52291e-18)
(22.1425 -4.28797 -1.64318e-19)
(21.484 -4.1646 4.9383e-18)
(20.9412 -4.07153 -3.91227e-18)
(20.4356 -3.97853 3.0636e-18)
(19.9446 -3.87981 2.14902e-18)
(19.4669 -3.7794 -1.3388e-18)
(18.9949 -3.67675 -4.1393e-19)
(18.5152 -3.56828 -4.61997e-19)
(18.019 -3.45043 1.34786e-18)
(17.4824 -3.31829 -1.43194e-20)
(16.9202 -3.16399 0)
(16.1959 -2.9738 8.46247e-20)
(15.6317 -2.69625 -3.24692e-20)
(14.038 -2.41796 6.86227e-18)
(6.22556 1.63578 0)
(6.89178 4.89411 -1.22636e-18)
(8.2676 8.02814 -2.94412e-18)
(10.2752 10.8091 -7.92946e-18)
(12.8115 13.0874 2.2122e-18)
(15.8507 14.7296 -5.71041e-18)
(19.1351 15.5151 -2.05903e-18)
(22.0876 15.2864 1.24287e-18)
(24.1905 14.5817 4.89623e-18)
(25.5838 14.175 1.02032e-17)
(26.9089 14.163 -1.63292e-18)
(28.7575 14.537 -3.88823e-19)
(31.5538 14.4604 2.63094e-19)
(35.1184 13.1066 1.89293e-17)
(38.3653 9.52434 -2.29896e-18)
(40.0986 4.88419 0)
(39.6588 -0.705963 -2.13679e-18)
(37.0447 -3.8112 2.47416e-18)
(33.9906 -4.51248 2.8383e-17)
(31.6742 -4.54846 -6.78125e-19)
(29.9728 -4.52451 1.05106e-17)
(28.5961 -4.44552 6.37114e-19)
(27.4893 -4.34406 0)
(26.6148 -4.26812 0)
(25.9737 -4.22751 -7.42882e-18)
(25.4099 -4.34853 4.21002e-19)
(24.6351 -4.54962 -5.73469e-18)
(23.808 -4.49933 0)
(23.1129 -4.38399 -3.66155e-18)
(22.536 -4.28692 2.88949e-18)
(22.0034 -4.19119 -4.83963e-18)
(21.4882 -4.08943 -1.69579e-18)
(20.9878 -3.98451 1.03862e-18)
(20.4957 -3.87604 0)
(19.9997 -3.76054 0)
(19.4911 -3.63379 -4.49386e-20)
(18.9482 -3.49113 0)
(18.3837 -3.32069 0)
(17.6802 -3.11705 3.45063e-18)
(17.1087 -2.79868 -4.8936e-20)
(15.7128 -2.49069 1.82074e-20)
(8.07609 1.46037 -2.66073e-19)
(8.68638 4.37768 0)
(9.8832 7.14865 3.10335e-18)
(11.5882 9.62959 -1.08994e-18)
(13.7481 11.6937 4.55203e-18)
(16.3147 13.2579 -5.53747e-18)
(19.1007 14.166 2.48377e-18)
(21.696 14.3325 -1.69056e-19)
(23.8199 13.9832 0)
(25.4002 13.6992 -4.97312e-19)
(26.8351 13.6573 5.92775e-18)
(28.665 13.8162 4.58465e-18)
(31.184 13.5828 -8.93302e-18)
(34.2842 12.3331 0)
(37.224 9.31897 -1.42981e-17)
(38.9898 5.24079 0)
(38.738 0.238381 7.00002e-18)
(36.6203 -3.02551 -2.20973e-19)
(34.033 -4.05683 -1.01304e-18)
(32.0885 -4.26148 2.55571e-18)
(30.7265 -4.3601 -9.86491e-18)
(29.621 -4.38545 -8.96963e-18)
(28.6807 -4.35205 9.6441e-19)
(27.8843 -4.31947 0)
(27.2488 -4.30664 6.25662e-18)
(26.679 -4.41915 -6.68162e-19)
(25.9479 -4.61507 5.07638e-18)
(25.1562 -4.60615 -2.2142e-19)
(24.4623 -4.50857 4.05136e-19)
(23.8757 -4.41749 -2.65621e-18)
(23.3363 -4.3275 1.76097e-18)
(22.8168 -4.22895 1.59241e-18)
(22.3129 -4.12409 -1.77273e-20)
(21.8188 -4.01348 -2.209e-20)
(21.3232 -3.89401 2.34954e-21)
(20.8184 -3.7609 -1.66079e-20)
(20.2851 -3.60966 -5.9695e-20)
(19.7352 -3.4254 2.63473e-20)
(19.07 -3.20819 -2.60239e-18)
(18.5219 -2.86088 0)
(17.3326 -2.5252 3.73143e-18)
(9.94004 1.28847 9.85819e-19)
(10.4923 3.87216 -6.97346e-19)
(11.5202 6.29634 2.12198e-18)
(12.9499 8.48035 -3.73856e-18)
(14.7556 10.3298 -2.49833e-18)
(16.891 11.7971 9.06418e-18)
(19.2218 12.7755 2.03193e-18)
(21.4604 13.23 4.98519e-19)
(23.5038 13.2136 0)
(25.2049 13.0734 -4.88956e-18)
(26.7365 13.0089 -4.7508e-18)
(28.5326 12.9977 -2.47944e-18)
(30.7886 12.6451 2.82209e-18)
(33.4523 11.5053 1.84479e-18)
(36.0463 9.02911 1.21054e-17)
(37.8405 5.59138 -2.52266e-18)
(37.9714 1.20037 -3.23011e-18)
(36.336 -2.10737 -2.21181e-17)
(34.0119 -3.49341 -9.74769e-18)
(32.1328 -3.90409 1.90141e-18)
(30.8544 -4.1039 4.4807e-18)
(29.8901 -4.20934 7.60742e-18)
(29.0945 -4.23608 -6.10085e-18)
(28.4187 -4.24625 0)
(27.8611 -4.26595 0)
(27.3609 -4.37622 0)
(26.7461 -4.56467 3.95938e-18)
(26.0553 -4.59823 0)
(25.4183 -4.53199 0)
(24.8654 -4.45652 2.18878e-18)
(24.3549 -4.37854 0)
(23.8615 -4.28898 -1.28325e-18)
(23.381 -4.18939 8.15204e-19)
(22.909 -4.08118 0)
(22.4364 -3.96187 0)
(21.9565 -3.8263 -6.43267e-19)
(21.4535 -3.67013 2.60086e-20)
(20.9387 -3.47677 1.55877e-18)
(20.3336 -3.24946 2.09676e-18)
(19.8302 -2.88871 -2.58471e-18)
(18.8633 -2.53819 -3.01582e-18)
(11.7801 1.12264 0)
(12.2732 3.3865 0)
(13.1451 5.48489 1.62847e-18)
(14.3298 7.38325 1.26372e-18)
(15.8148 9.01964 0)
(17.5651 10.3725 -3.3538e-18)
(19.4881 11.3719 -4.85598e-19)
(21.3859 12.0069 -1.77387e-18)
(23.2665 12.2593 6.52777e-19)
(24.9933 12.281 -2.36508e-20)
(26.5777 12.2347 0)
(28.3193 12.1183 2.08778e-18)
(30.3348 11.691 -1.43821e-17)
(32.6098 10.66 6.26653e-18)
(34.8662 8.65315 4.04891e-18)
(36.6113 5.84446 8.73431e-18)
(37.1352 2.12406 -6.44913e-18)
(36.077 -1.09712 6.68862e-18)
(34.1071 -2.812 -8.09225e-18)
(32.2766 -3.47505 0)
(30.963 -3.79079 -6.0635e-18)
(30.0058 -3.97407 -5.64403e-18)
(29.2467 -4.05909 1.01904e-17)
(28.6153 -4.10729 0)
(28.094 -4.15414 4.19878e-18)
(27.6363 -4.26007 3.74513e-18)
(27.1167 -4.43095 3.57897e-19)
(26.5294 -4.49588 -7.08635e-20)
(25.9674 -4.46312 -3.26865e-19)
(25.4694 -4.40609 0)
(25.0089 -4.342 0)
(24.563 -4.26453 1.07219e-18)
(24.1265 -4.17378 1.44144e-20)
(23.6966 -4.07134 3.7837e-19)
(23.2665 -3.95536 0)
(22.8311 -3.82072 -4.07115e-19)
(22.378 -3.6631 -3.19464e-20)
(21.9178 -3.46588 -1.2311e-18)
(21.3937 -3.23323 1.53686e-18)
(20.953 -2.87576 2.15162e-18)
(20.2137 -2.52291 0)
(13.5593 0.965656 0)
(13.994 2.9294 -1.46842e-18)
(14.7258 4.72701 2.50543e-18)
(15.6975 6.35729 -6.98801e-18)
(16.9026 7.78583 3.55675e-18)
(18.3187 9.00888 2.77405e-18)
(19.8853 9.98367 0)
(21.4688 10.7072 1.20008e-18)
(23.1333 11.1465 0)
(24.7907 11.3219 3.96043e-19)
(26.3658 11.3258 -1.11804e-18)
(28.0284 11.1638 1.05522e-18)
(29.825 10.7097 3.82634e-18)
(31.7634 9.7932 1.69607e-18)
(33.7041 8.18562 -6.39113e-19)
(35.3343 5.94503 -9.58146e-18)
(36.1484 2.91135 4.27724e-19)
(35.6728 -0.0623146 0)
(34.1782 -2.00252 3.66546e-18)
(32.5085 -2.94009 6.25622e-19)
(31.1806 -3.40695 5.1807e-18)
(30.1966 -3.68292 5.71853e-18)
(29.4264 -3.83622 1.17369e-18)
(28.789 -3.92836 0)
(28.2603 -4.00258 -3.47576e-18)
(27.8008 -4.10674 -3.10892e-18)
(27.3203 -4.25595 -2.73987e-18)
(26.7952 -4.33775 0)
(26.2832 -4.33348 1.99005e-18)
(25.8223 -4.29373 0)
(25.3991 -4.24144 0)
(24.9932 -4.17457 0)
(24.5975 -4.09212 -6.04049e-19)
(24.2095 -3.99528 -6.2514e-19)
(23.8238 -3.8829 -9.49144e-21)
(23.4362 -3.75024 6.22267e-19)
(23.0382 -3.59301 0)
(22.6387 -3.39613 -8.52085e-19)
(22.2021 -3.16272 -2.5075e-18)
(21.8307 -2.82301 -1.45798e-18)
(21.2983 -2.47697 -2.50588e-20)
(15.2449 0.819976 0)
(15.6241 2.50776 1.24369e-18)
(16.233 4.03246 -2.75929e-21)
(17.0236 5.41662 3.72515e-19)
(17.9922 6.64659 -3.04177e-18)
(19.1264 7.72975 -2.3746e-18)
(20.3885 8.64225 1.66929e-18)
(21.6906 9.38209 -1.01381e-18)
(23.1155 9.92412 -5.90217e-20)
(24.6274 10.2196 6.87317e-19)
(26.1242 10.2908 0)
(27.6755 10.1351 -5.52764e-18)
(29.2688 9.70193 5.11409e-18)
(30.9194 8.91049 -6.63048e-18)
(32.5751 7.63851 0)
(34.0505 5.89063 -2.44425e-18)
(35.0266 3.50979 7.21895e-18)
(35.0491 0.91973 -4.9193e-18)
(34.0848 -1.09663 0)
(32.6991 -2.28441 0)
(31.4369 -2.93274 0)
(30.451 -3.32068 -5.65962e-18)
(29.6723 -3.55447 2.5025e-19)
(29.0216 -3.70151 -1.48333e-18)
(28.4738 -3.80918 2.88289e-18)
(27.9964 -3.92012 1.20332e-18)
(27.5246 -4.05404 -1.19873e-18)
(27.0317 -4.14459 1.97329e-18)
(26.5475 -4.16453 2.89926e-20)
(26.1034 -4.14227 0)
(25.6963 -4.10067 -2.36622e-19)
(25.3105 -4.04246 2.38978e-19)
(24.9383 -3.96686 5.79187e-19)
(24.5767 -3.87459 2.77823e-19)
(24.2217 -3.76501 0)
(23.8701 -3.63413 -2.26688e-19)
(23.5164 -3.47792 0)
(23.1674 -3.28426 7.29856e-19)
(22.8049 -3.05421 9.73345e-19)
(22.4938 -2.74169 2.30699e-18)
(22.1161 -2.41101 0)
(16.8108 0.687444 9.75786e-19)
(17.1385 2.12599 -2.59168e-18)
(17.6423 3.40706 -2.97832e-18)
(18.2823 4.56942 5.70152e-18)
(19.056 5.61375 0)
(19.9579 6.5532 -1.63179e-18)
(20.9655 7.37634 1.3665e-18)
(22.0223 8.08036 -1.22742e-18)
(23.2087 8.65231 -1.49361e-19)
(24.5273 9.01978 -7.13413e-19)
(25.8847 9.15665 8.35461e-19)
(27.2897 9.04319 2.8656e-18)
(28.6879 8.66962 -5.32211e-18)
(30.0917 8.01303 6.39466e-18)
(31.4962 7.02322 -3.43903e-18)
(32.7988 5.68818 4.87368e-18)
(33.8215 3.88601 -3.70067e-18)
(34.207 1.76002 8.01126e-18)
(33.7496 -0.16756 0)
(32.7361 -1.52231 0)
(31.634 -2.35454 -3.20667e-18)
(30.6962 -2.87025 4.56045e-19)
(29.9323 -3.19596 3.0897e-18)
(29.2825 -3.40961 2.62405e-18)
(28.7239 -3.56033 -3.48616e-18)
(28.2325 -3.68936 -9.76917e-19)
(27.7631 -3.81955 -8.5794e-19)
(27.292 -3.91657 -1.48916e-18)
(26.8293 -3.9573 7.77485e-19)
(26.3969 -3.95406 0)
(25.9975 -3.9251 2.01966e-19)
(25.6216 -3.87639 -3.53208e-19)
(25.2619 -3.80834 -3.23276e-19)
(24.9153 -3.72141 0)
(24.5791 -3.61531 0)
(24.2512 -3.48726 0)
(23.9286 -3.33391 0)
(23.6165 -3.14684 4.37004e-19)
(23.3076 -2.92543 0)
(23.0422 -2.64435 -8.60462e-19)
(22.7596 -2.33895 -2.68101e-20)
(18.2384 0.569142 0)
(18.5195 1.7859 0)
(18.9349 2.85253 -2.14858e-18)
(19.4515 3.81822 0)
(20.0677 4.69269 0)
(20.7817 5.49102 0)
(21.5807 6.20927 0)
(22.4286 6.84427 0)
(23.3944 7.39258 0)
(24.5009 7.78356 -8.89194e-19)
(25.6778 7.96843 7.04373e-19)
(26.9069 7.91285 -6.30801e-19)
(28.1132 7.62181 2.01516e-18)
(29.3006 7.10384 2.8159e-18)
(30.4844 6.35158 -3.92113e-18)
(31.6116 5.35347 2.88623e-18)
(32.5947 4.03139 -7.76587e-21)
(33.1944 2.38307 -5.51961e-18)
(33.1549 0.685823 2.96598e-18)
(32.5444 -0.708236 -3.16654e-18)
(31.6864 -1.68266 0)
(30.8588 -2.32592 -2.53092e-18)
(30.1441 -2.7496 -4.5896e-18)
(29.5181 -3.03826 4.3097e-18)
(28.9663 -3.24144 -2.0701e-18)
(28.4736 -3.40005 1.62989e-18)
(28.0111 -3.53945 -1.61381e-18)
(27.5603 -3.64572 -6.14797e-19)
(27.1206 -3.70534 -1.03464e-18)
(26.7039 -3.72232 -4.35864e-19)
(26.3148 -3.70888 0)
(25.9489 -3.67201 0)
(25.6006 -3.61361 -4.57381e-19)
(25.2673 -3.53444 -2.49585e-19)
(24.9469 -3.43463 9.70758e-20)
(24.6385 -3.31261 4.57949e-22)
(24.3408 -3.16609 0)
(24.0579 -2.99005 -3.07752e-19)
(23.7881 -2.78356 -4.72597e-20)
(23.5576 -2.53523 0)
(23.3297 -2.26449 5.83418e-19)
(19.5165 0.465401 0)
(19.7564 1.48705 -1.86879e-18)
(20.0981 2.36724 3.62501e-18)
(20.5147 3.16106 0)
(21.005 3.88336 0)
(21.5689 4.54872 2.05215e-18)
(22.1992 5.15729 3.08539e-18)
(22.8731 5.70627 -1.86399e-18)
(23.645 6.19783 0)
(24.5448 6.57351 4.75493e-21)
(25.5249 6.78144 -9.94111e-19)
(26.5616 6.78084 -7.16783e-19)
(27.5783 6.57759 1.89859e-18)
(28.5709 6.19215 5.96976e-19)
(29.5588 5.63855 -2.64066e-18)
(30.5161 4.91087 1.02456e-18)
(31.4053 3.9667 -3.45675e-18)
(32.0875 2.75152 3.94604e-18)
(32.3371 1.36818 1.05406e-18)
(32.0946 0.069203 2.17142e-18)
(31.5287 -0.962798 0)
(30.8727 -1.70368 2.0983e-18)
(30.2499 -2.21785 -1.72445e-18)
(29.677 -2.58234 3.68522e-18)
(29.1549 -2.84375 0)
(28.6784 -3.04135 2.78991e-18)
(28.2325 -3.20178 0)
(27.8051 -3.32314 1.00876e-18)
(27.3914 -3.40172 -1.02209e-18)
(26.9965 -3.43956 7.87953e-19)
(26.6242 -3.44429 -2.9273e-19)
(26.2731 -3.42229 2.94733e-19)
(25.9401 -3.37657 2.09096e-19)
(25.6231 -3.30852 4.07496e-19)
(25.3208 -3.21879 -7.66293e-20)
(25.0331 -3.10698 -9.77408e-20)
(24.7598 -2.97212 0)
(24.5041 -2.81198 1.50118e-19)
(24.2663 -2.6265 4.01968e-20)
(24.0639 -2.41155 -4.00915e-20)
(23.8712 -2.18058 -4.74318e-19)
(20.6412 0.37594 0)
(20.8448 1.22742 -3.37082e-18)
(21.1255 1.94727 6.08839e-18)
(21.4612 2.59292 -2.29748e-18)
(21.8513 3.18167 1.8001e-18)
(22.2962 3.72629 -6.79766e-18)
(22.7915 4.22888 0)
(23.3228 4.68741 -1.12919e-18)
(23.931 5.10661 0)
(24.6445 5.44223 0)
(25.4333 5.64961 -1.06787e-18)
(26.2777 5.68972 1.46378e-18)
(27.1118 5.56473 0)
(27.9268 5.29581 -1.27352e-18)
(28.7388 4.90432 0)
(29.5356 4.38952 -4.29219e-18)
(30.3038 3.73221 4.87166e-18)
(30.9723 2.87279 6.66675e-19)
(31.3771 1.81914 -9.13595e-19)
(31.4142 0.714819 -1.85202e-18)
(31.1344 -0.272296 -1.57287e-18)
(30.6885 -1.04984 0)
(30.1988 -1.6256 -2.971e-18)
(29.7123 -2.05332 1.33409e-18)
(29.2466 -2.37025 1.224e-18)
(28.8078 -2.6107 -1.23679e-19)
(28.3927 -2.80017 -3.09193e-18)
(27.9958 -2.94288 0)
(27.6129 -3.04225 7.6388e-19)
(27.2458 -3.10165 -6.00901e-19)
(26.8971 -3.12656 6.05074e-19)
(26.567 -3.12233 -8.44773e-19)
(26.2544 -3.09253 3.94632e-19)
(25.958 -3.03925 1.6158e-19)
(25.6773 -2.96383 4.47183e-20)
(25.4126 -2.8669 1.00261e-19)
(25.1644 -2.74876 0)
(24.9352 -2.60918 -1.80659e-19)
(24.7255 -2.44924 0)
(24.547 -2.26814 0)
(24.3808 -2.07739 0)
(21.6148 0.300076 0)
(21.7865 1.00414 1.02677e-18)
(22.0165 1.58749 -4.41386e-18)
(22.2868 2.10707 3.29582e-18)
(22.597 2.58089 1.5361e-18)
(22.9475 3.01938 -8.64486e-19)
(23.3354 3.42536 5.33277e-18)
(23.7517 3.79764 -6.30933e-18)
(24.2254 4.14164 4.33311e-18)
(24.7803 4.42564 -2.47586e-18)
(25.398 4.6155 6.06309e-19)
(26.0651 4.67869 -1.88793e-18)
(26.7306 4.61416 1.88562e-18)
(27.3849 4.439 2.43356e-18)
(28.0395 4.17432 -2.21042e-18)
(28.6878 3.82205 -2.36804e-19)
(29.3271 3.37648 0)
(29.9248 2.7886 -5.89921e-19)
(30.3757 2.02922 4.68778e-18)
(30.5826 1.16248 -4.77848e-18)
(30.5321 0.305047 1.33841e-18)
(30.2949 -0.434844 0)
(29.9619 -1.02364 1.73783e-18)
(29.5891 -1.48542 -1.61479e-18)
(29.2058 -1.8424 8.49452e-19)
(28.8276 -2.11992 -9.62007e-19)
(28.4606 -2.33923 8.05473e-19)
(28.1053 -2.50628 6.90379e-19)
(27.7605 -2.62805 -6.26022e-19)
(27.4279 -2.70958 -9.88774e-19)
(27.1097 -2.75587 9.93775e-19)
(26.8071 -2.77166 -1.10195e-20)
(26.5202 -2.76068 3.07011e-19)
(26.2488 -2.72563 -2.13196e-19)
(25.9931 -2.66849 0)
(25.7535 -2.59076 3.25244e-20)
(25.5309 -2.49375 -8.36735e-20)
(25.327 -2.37853 4.11328e-20)
(25.1423 -2.24701 4.46019e-20)
(24.9839 -2.09978 -2.26318e-20)
(24.8391 -1.94713 -1.16915e-19)
(22.4442 0.236948 -1.5804e-18)
(22.5879 0.814104 -1.04158e-18)
(22.7756 1.2824 -2.22852e-18)
(22.9927 1.69612 2.6101e-18)
(23.2392 2.0728 3.66026e-18)
(23.5147 2.42056 -1.69902e-18)
(23.8177 2.74227 -2.86298e-18)
(24.1419 3.03749 0)
(24.5076 3.31134 -2.06617e-18)
(24.9329 3.5419 9.70837e-19)
(25.4066 3.70502 5.51974e-19)
(25.9205 3.77606 1.06183e-18)
(26.4381 3.75245 -2.91354e-18)
(26.9513 3.64647 2.55444e-18)
(27.4672 3.47575 0)
(27.9821 3.24301 -6.17531e-19)
(28.4967 2.94915 5.23282e-18)
(28.9982 2.55786 -5.07886e-18)
(29.4242 2.03327 -1.7362e-19)
(29.7025 1.39578 6.84403e-18)
(29.7993 0.71145 -7.31674e-18)
(29.7309 0.070494 0)
(29.5489 -0.477499 -8.45782e-19)
(29.3002 -0.932955 4.2437e-19)
(29.0161 -1.30236 0)
(28.7167 -1.59996 0)
(28.414 -1.84032 -2.32739e-18)
(28.1131 -2.02806 1.77534e-18)
(27.8159 -2.17039 -9.21277e-19)
(27.5256 -2.27281 9.25066e-19)
(27.2451 -2.34012 3.6625e-19)
(26.9764 -2.37668 8.7941e-19)
(26.7207 -2.38623 -1.28198e-18)
(26.4786 -2.37179 3.56262e-19)
(26.2508 -2.33582 -4.93073e-20)
(26.0381 -2.28043 1.30667e-19)
(25.8413 -2.20756 1.28278e-19)
(25.6616 -2.11902 -3.84422e-20)
(25.4993 -2.0171 -3.04702e-20)
(25.3585 -1.90292 1.31357e-20)
(25.2311 -1.78542 4.87538e-20)
(23.1388 0.185456 0)
(23.2578 0.654241 -5.62318e-19)
(23.4102 1.0266 -7.89608e-19)
(23.5842 1.35268 6.1103e-18)
(23.7796 1.64874 -4.07091e-18)
(23.9959 1.92082 -1.06144e-18)
(24.2318 2.17156 2.01106e-18)
(24.4832 2.40106 0)
(24.7639 2.61374 6.62374e-19)
(25.0865 2.7949 -6.2275e-19)
(25.4443 2.92833 7.47993e-19)
(25.8326 2.99664 -9.51248e-19)
(26.2267 2.99707 1.50205e-18)
(26.6203 2.9379 3.26953e-18)
(27.018 2.83253 -2.93135e-18)
(27.417 2.68343 -2.87059e-18)
(27.8189 2.49433 2.84426e-18)
(28.2201 2.23967 -3.87439e-22)
(28.5851 1.88861 -4.17506e-18)
(28.8666 1.44257 4.3322e-18)
(29.0326 0.93327 5.02537e-18)
(29.0738 0.422574 -4.85733e-18)
(29.011 -0.043466 3.31782e-19)
(28.8748 -0.453373 0)
(28.6904 -0.802645 0)
(28.4769 -1.09563 0)
(28.2482 -1.33973 0)
(28.0114 -1.53688 0)
(27.7704 -1.69236 0)
(27.53 -1.81056 0)
(27.2941 -1.89558 -3.00801e-19)
(27.0655 -1.95118 9.40291e-19)
(26.8461 -1.98079 -5.46365e-19)
(26.6374 -1.98741 -3.06409e-19)
(26.4405 -1.97366 -6.65282e-20)
(26.2564 -1.94189 0)
(26.0859 -1.89432 1.14307e-20)
(25.9298 -1.83303 7.00259e-21)
(25.7885 -1.76033 -4.02483e-20)
(25.6642 -1.67745 1.83624e-21)
(25.5519 -1.59193 3.64969e-20)
(23.7099 0.144083 -7.00078e-19)
(23.8071 0.521166 -2.60159e-18)
(23.9302 0.814305 -3.49879e-19)
(24.0692 1.06903 3.17607e-18)
(24.2237 1.29951 4.53102e-18)
(24.393 1.51002 4.79874e-19)
(24.5762 1.70288 -3.69017e-18)
(24.7705 1.87857 1.97392e-18)
(24.9849 2.04065 -2.31609e-18)
(25.2281 2.17945 4.63482e-19)
(25.4958 2.28456 -7.51025e-19)
(25.7853 2.34429 -5.61401e-20)
(26.0804 2.35639 7.72557e-19)
(26.3768 2.32633 -1.62018e-18)
(26.6773 2.26369 2.35413e-18)
(26.9799 2.17037 -2.43664e-18)
(27.2857 2.05044 4.56352e-18)
(27.595 1.88678 -9.20119e-18)
(27.8882 1.65634 4.93581e-18)
(28.1362 1.35452 -6.12504e-18)
(28.3157 0.994582 6.22143e-18)
(28.4102 0.614221 0)
(28.4233 0.24778 0)
(28.3716 -0.0911352 0)
(28.2711 -0.393501 8.81152e-20)
(28.1365 -0.657408 -2.81386e-18)
(27.9803 -0.884726 2.63806e-18)
(27.8095 -1.07498 1.45481e-19)
(27.6284 -1.23091 0)
(27.4422 -1.3551 -9.71327e-19)
(27.2554 -1.45032 9.6947e-19)
(27.0713 -1.51941 9.66964e-20)
(26.8924 -1.56511 -8.46283e-20)
(26.7205 -1.59 -5.44317e-19)
(26.5571 -1.59648 6.03824e-19)
(26.4033 -1.58678 0)
(26.2599 -1.56302 -3.53405e-20)
(26.1279 -1.5272 6.25485e-21)
(26.0074 -1.4814 7.55928e-20)
(25.8995 -1.42678 -9.80986e-21)
(25.8018 -1.36938 8.74938e-21)
(24.154 0.112938 6.15407e-19)
(24.2334 0.41616 0)
(24.3328 0.647003 -1.96791e-19)
(24.4442 0.846807 1.36855e-18)
(24.5671 1.02696 1.29688e-18)
(24.7007 1.19035 -2.45934e-18)
(24.8441 1.33904 0)
(24.9953 1.47379 7.43767e-19)
(25.1606 1.59726 3.51429e-19)
(25.3454 1.70314 3.82304e-19)
(25.5471 1.78474 9.7927e-20)
(25.7639 1.83435 6.24215e-19)
(25.9854 1.85041 -6.03016e-19)
(26.2086 1.8366 -1.19194e-18)
(26.4353 1.79976 -8.36908e-19)
(26.6639 1.74125 -8.32394e-19)
(26.8954 1.66462 -8.88812e-19)
(27.1305 1.5581 2.93774e-18)
(27.3584 1.40549 0)
(27.5615 1.20152 4.46143e-18)
(27.7245 0.95119 -4.25476e-18)
(27.8322 0.676668 -4.7826e-18)
(27.8815 0.401175 4.75482e-18)
(27.88 0.135998 0)
(27.8368 -0.109788 -8.09916e-20)
(27.7616 -0.331757 0)
(27.6639 -0.528732 1.43815e-19)
(27.5493 -0.698971 -2.02598e-18)
(27.4216 -0.843304 1.88608e-18)
(27.2855 -0.962717 1.58587e-18)
(27.1452 -1.0587 -1.5778e-18)
(27.004 -1.13305 -8.77733e-20)
(26.8646 -1.18771 4.10781e-20)
(26.7287 -1.22465 0)
(26.5981 -1.24577 -5.58251e-20)
(26.474 -1.25295 0)
(26.3572 -1.24796 -1.44099e-19)
(26.2485 -1.23252 -2.51141e-21)
(26.1483 -1.20833 9.33225e-20)
(26.0572 -1.1764 0)
(25.974 -1.14138 0)
(24.4846 0.0902194 -1.48774e-18)
(24.5503 0.336657 1.41064e-18)
(24.6315 0.520836 4.23503e-19)
(24.7221 0.679867 -1.24747e-18)
(24.8214 0.822708 2.16592e-19)
(24.9285 0.951336 0)
(25.0427 1.06757 -2.66692e-18)
(25.1627 1.1723 1.99872e-18)
(25.2924 1.26752 4.29754e-19)
(25.4358 1.34901 -6.53417e-19)
(25.5908 1.41243 2.99852e-19)
(25.7564 1.4526 -2.96149e-19)
(25.9254 1.46852 1.17307e-18)
(26.096 1.46271 -1.00429e-18)
(26.2692 1.44011 3.19426e-19)
(26.4438 1.40174 -3.21891e-19)
(26.6204 1.35059 4.50089e-18)
(26.8 1.27855 -1.56394e-18)
(26.9762 1.17434 -5.28803e-18)
(27.138 1.03352 2.7032e-18)
(27.2755 0.85779 -5.95331e-20)
(27.377 0.660416 0)
(27.4376 0.456649 -3.57295e-18)
(27.4606 0.254663 3.54339e-18)
(27.4507 0.0618599 3.42148e-18)
(27.414 -0.117085 -3.44594e-18)
(27.3569 -0.279842 1.58061e-18)
(27.2838 -0.424324 -1.58115e-18)
(27.1974 -0.550299 0)
(27.1015 -0.657755 -1.28781e-18)
(26.9998 -0.747247 1.28693e-18)
(26.8951 -0.819761 1.06202e-18)
(26.7897 -0.876524 -1.50433e-18)
(26.6854 -0.918885 4.7217e-19)
(26.5838 -0.948246 5.93209e-21)
(26.4861 -0.966017 3.19722e-19)
(26.3931 -0.973594 -4.58507e-19)
(26.3056 -0.972316 1.37493e-19)
(26.224 -0.963531 4.90857e-20)
(26.1487 -0.948048 -2.8561e-20)
(26.0793 -0.929302 -2.46513e-20)
(24.7348 0.0732251 0)
(24.7898 0.275422 -4.55015e-19)
(24.8568 0.424177 -1.08465e-19)
(24.9313 0.552392 -1.69735e-18)
(25.0126 0.667105 8.15603e-19)
(25.0998 0.769685 2.36887e-18)
(25.1922 0.86175 -4.36622e-18)
(25.2888 0.944199 2.02447e-18)
(25.3925 1.01857 4.7905e-19)
(25.5057 1.08198 -1.68874e-18)
(25.627 1.13157 6.30499e-19)
(25.7558 1.1638 2.22389e-19)
(25.887 1.17806 -1.22756e-19)
(26.0193 1.17616 1.4446e-19)
(26.1535 1.16168 -1.76665e-18)
(26.2885 1.13541 2.33144e-18)
(26.4247 1.09971 2.75363e-18)
(26.5629 1.04902 -6.42434e-18)
(26.6992 0.975477 5.53539e-18)
(26.8266 0.875746 -2.01649e-18)
(26.9387 0.750257 -2.44884e-18)
(27.0267 0.60727 5.13803e-18)
(27.0862 0.456853 8.90577e-20)
(27.1185 0.304635 -2.53058e-18)
(27.1259 0.156128 4.6391e-20)
(27.1121 0.0153343 -7.28496e-20)
(27.0814 -0.11531 -2.46041e-20)
(27.0368 -0.233819 1.16703e-18)
(26.9803 -0.339518 -2.25517e-18)
(26.9147 -0.43192 1.08901e-18)
(26.8428 -0.511046 -8.3278e-21)
(26.7671 -0.577329 -1.31727e-20)
(26.6893 -0.631465 6.88396e-21)
(26.6112 -0.674315 -3.45935e-19)
(26.5339 -0.706835 3.48567e-19)
(26.4587 -0.73003 2.96093e-19)
(26.3862 -0.744921 -2.82364e-19)
(26.3172 -0.75251 0)
(26.252 -0.753806 0)
(26.1911 -0.749437 1.10247e-20)
(26.1345 -0.741853 4.40161e-21)
(24.9276 0.0601849 0)
(24.974 0.227384 2.16203e-18)
(25.0298 0.348803 2.53757e-18)
(25.0916 0.453311 -2.53666e-18)
(25.1589 0.546441 2.04626e-18)
(25.2306 0.629166 -2.04374e-18)
(25.3063 0.702918 -7.60416e-19)
(25.3851 0.768557 1.24765e-18)
(25.469 0.827274 -4.33958e-19)
(25.5598 0.877096 0)
(25.6562 0.916087 1.14356e-19)
(25.7579 0.94183 0)
(25.8612 0.953962 4.01343e-19)
(25.9652 0.953802 -4.97512e-19)
(26.0704 0.944002 0)
(26.176 0.925183 -2.14762e-19)
(26.2821 0.899195 0)
(26.3893 0.862163 2.23786e-18)
(26.4952 0.808631 -2.52423e-18)
(26.5952 0.7362 0)
(26.685 0.64488 0)
(26.7582 0.540059 -1.3125e-19)
(26.8114 0.428505 -1.82701e-18)
(26.845 0.314034 1.8445e-18)
(26.8602 0.200594 -1.94761e-18)
(26.859 0.0913351 2.00132e-18)
(26.8445 -0.0116132 3.31737e-20)
(26.8187 -0.106618 0)
(26.7828 -0.192915 0)
(26.739 -0.26986 -8.04326e-19)
(26.6893 -0.337218 7.52175e-19)
(26.6356 -0.395102 1.22688e-20)
(26.5793 -0.443866 0)
(26.5218 -0.484023 2.56685e-20)
(26.4642 -0.516192 0)
(26.4073 -0.541058 -8.3629e-21)
(26.3518 -0.559339 -2.19045e-19)
(26.2984 -0.57175 1.43886e-19)
(26.2474 -0.579025 7.48924e-20)
(26.1991 -0.581636 -1.02167e-20)
(26.1538 -0.581257 -8.84337e-21)
(25.0787 0.049981 -5.58972e-19)
(25.1179 0.189128 -3.04016e-19)
(25.1647 0.289122 -1.48229e-18)
(25.2164 0.375083 0)
(25.2726 0.451375 0)
(25.3322 0.51871 0)
(25.3947 0.578353 7.03349e-19)
(25.4597 0.631099 -2.3993e-18)
(25.5284 0.67789 1.10851e-18)
(25.602 0.717356 1.45579e-18)
(25.6796 0.74819 -4.6341e-19)
(25.7609 0.768716 7.48602e-20)
(25.8433 0.778745 -7.51159e-20)
(25.926 0.779265 6.26217e-19)
(26.0094 0.772258 -6.36403e-19)
(26.0928 0.758221 0)
(26.1762 0.7386 1.38685e-18)
(26.2601 0.710675 -1.42616e-18)
(26.3428 0.67064 -2.12339e-18)
(26.4213 0.616819 4.48813e-18)
(26.4927 0.549123 5.11677e-19)
(26.5524 0.471231 -3.94131e-18)
(26.5977 0.387811 -1.64734e-19)
(26.6289 0.30146 2.86036e-18)
(26.6464 0.214967 -1.43556e-18)
(26.6516 0.130702 0)
(26.6466 0.0503791 8.09497e-20)
(26.6326 -0.0247452 0)
(26.6105 -0.0939742 -7.63593e-20)
(26.5818 -0.156685 0)
(26.548 -0.212557 4.16954e-20)
(26.5104 -0.261547 6.57312e-20)
(26.4703 -0.303804 5.16481e-19)
(26.4286 -0.33962 -5.45103e-19)
(26.3862 -0.369379 0)
(26.3438 -0.393532 0)
(26.302 -0.412568 -2.28004e-20)
(26.2613 -0.426986 6.13329e-20)
(26.222 -0.437305 -1.39379e-19)
(26.1843 -0.443874 7.57786e-20)
(26.1487 -0.447783 2.38661e-20)
(25.1985 0.0418702 -3.73402e-19)
(25.2319 0.158304 8.56844e-19)
(25.2712 0.241291 -1.31836e-18)
(25.3148 0.312549 1.66994e-19)
(25.362 0.375534 0)
(25.4119 0.430784 1.04258e-18)
(25.4641 0.479413 -2.09408e-18)
(25.5181 0.522142 7.58947e-20)
(25.5748 0.559727 7.46374e-19)
(25.6351 0.591215 -1.36819e-18)
(25.6983 0.615723 0)
(25.764 0.632082 3.22597e-20)
(25.8303 0.640218 0)
(25.8967 0.640886 0)
(25.9634 0.635586 0)
(26.0299 0.624725 0)
(26.0961 0.60943 1.27934e-18)
(26.1623 0.587785 -1.13625e-18)
(26.2273 0.557125 0)
(26.2891 0.516304 0)
(26.3457 0.465244 1.43564e-18)
(26.3939 0.406564 -1.88578e-18)
(26.4315 0.343563 1.98931e-18)
(26.4588 0.278033 -2.08464e-18)
(26.476 0.211942 0)
(26.484 0.147039 9.59423e-19)
(26.4841 0.0846482 -2.2797e-18)
(26.4773 0.0256996 1.05739e-18)
(26.4642 -0.029235 1.30735e-20)
(26.4457 -0.0796228 0)
(26.423 -0.125152 -5.37953e-20)
(26.397 -0.165713 -1.00833e-20)
(26.3687 -0.201352 0)
(26.3388 -0.232222 -4.56854e-20)
(26.308 -0.258559 0)
(26.2767 -0.280652 0)
(26.2456 -0.298829 2.12303e-20)
(26.2149 -0.313434 -3.45681e-20)
(26.185 -0.324825 6.50692e-20)
(26.156 -0.333259 -5.14033e-21)
(26.1284 -0.339411 -4.37912e-20)
(25.2946 0.035338 0)
(25.323 0.133221 0)
(25.3564 0.202558 1.21362e-18)
(25.3933 0.262024 6.13662e-20)
(25.4332 0.31437 0)
(25.4752 0.360018 9.50404e-19)
(25.5191 0.399945 6.75364e-19)
(25.5643 0.434799 -1.63731e-18)
(25.6115 0.465196 3.9464e-19)
(25.6613 0.490473 -6.99636e-19)
(25.7132 0.510038 -1.00885e-19)
(25.7667 0.523078 -3.01261e-20)
(25.8206 0.52959 0)
(25.8744 0.530167 -1.13592e-19)
(25.9282 0.525954 0)
(25.9816 0.517288 0)
(26.0345 0.505055 -1.00918e-18)
(26.0871 0.487901 8.4009e-19)
(26.1386 0.463953 0)
(26.1874 0.432443 0)
(26.2324 0.39333 -1.36412e-18)
(26.271 0.348546 2.8899e-18)
(26.3018 0.300474 -2.93561e-18)
(26.325 0.250373 1.45749e-18)
(26.3407 0.199641 0)
(26.3494 0.149558 2.0623e-19)
(26.3522 0.101126 1.48589e-19)
(26.3496 0.055019 0)
(26.3421 0.0116812 -7.13978e-19)
(26.3304 -0.0284617 8.4638e-19)
(26.3153 -0.065141 1.32979e-19)
(26.2975 -0.0982369 -4.77714e-20)
(26.2777 -0.127743 -3.78326e-20)
(26.2564 -0.153738 4.25958e-20)
(26.2341 -0.176362 0)
(26.2113 -0.195802 3.19788e-20)
(26.1882 -0.212275 0)
(26.1653 -0.226013 1.7683e-19)
(26.1428 -0.237266 -1.15397e-19)
(26.1208 -0.24622 -2.3752e-21)
(26.0995 -0.25327 -2.45731e-20)
(25.3725 0.0300184 4.89704e-19)
(25.3967 0.11264 2.24137e-19)
(25.4251 0.170916 -1.22222e-18)
(25.4565 0.220833 3.29468e-18)
(25.4904 0.26459 -1.58203e-18)
(25.526 0.302531 6.21939e-19)
(25.563 0.335515 6.42038e-19)
(25.6011 0.364117 5.46018e-19)
(25.6407 0.388844 4.33605e-19)
(25.6822 0.409243 3.01075e-19)
(25.725 0.424921 -2.03028e-19)
(25.7691 0.435317 -2.70827e-20)
(25.8132 0.440474 -2.76737e-20)
(25.8571 0.440864 6.78958e-19)
(25.9008 0.437372 -4.97332e-19)
(25.944 0.430282 9.88337e-19)
(25.9865 0.420293 -8.46992e-19)
(26.0286 0.406448 0)
(26.0696 0.387432 9.04185e-20)
(26.1084 0.362737 -9.54942e-19)
(26.1441 0.332363 9.7498e-19)
(26.1751 0.297772 -8.68405e-19)
(26.2001 0.260721 2.13581e-18)
(26.2194 0.222109 -1.06856e-18)
(26.2331 0.182938 0)
(26.2416 0.144147 -8.56743e-20)
(26.2455 0.106483 -8.55459e-20)
(26.2453 0.0704306 0)
(26.2414 0.0363246 -5.85076e-19)
(26.2341 0.00449179 5.64585e-19)
(26.2242 -0.0248522 -7.72242e-20)
(26.212 -0.051599 0)
(26.1982 -0.0757232 3.52825e-20)