/*--------------------------------*- C++ -*----------------------------------*\
  =========                 |
  \\      /  F ield         | OpenFOAM: The Open Source CFD Toolbox
   \\    /   O peration     | Website:  https://openfoam.org
    \\  /    A nd           | Version:  11
     \\/     M anipulation  |
\*---------------------------------------------------------------------------*/
FoamFile
{
    format      ascii;
    class       volScalarField;
    location    "150";
    object      nuTilda;
}
// * * * * * * * * * * * * * * * * * * * * * * * * * * * * * * * * * * * * * //

dimensions      [0 2 -1 0 0 0 0];

internalField   nonuniform List<scalar> 
11040
(
0.00175739
0.00179801
0.00193916
0.00251545
0.00294862
0.00326296
0.00343859
0.003352
0.00319631
0.00309637
0.00307412
0.00318502
0.00341042
0.00368181
0.00372435
0.00349373
0.00285203
0.00240717
0.00222956
0.0021651
0.00212955
0.00209135
0.00205838
0.00203694
0.00203184
0.00201696
0.00197003
0.00193257
0.00190351
0.00188253
0.00186315
0.00184339
0.00182346
0.00180279
0.00178016
0.00175449
0.00172349
0.00168709
0.00163274
0.0015871
0.00132578
0.00812339
0.00820838
0.00814251
0.00789801
0.00762674
0.00719467
0.00655659
0.00566005
0.00494168
0.00446276
0.00415891
0.00411706
0.00412901
0.00404763
0.00370971
0.00384644
0.00403384
0.00419627
0.00428497
0.00417471
0.00392933
0.00366799
0.00345827
0.00330466
0.00318914
0.00307928
0.00303299
0.00300895
0.00297129
0.00292724
0.00288867
0.00285952
0.00283851
0.0028238
0.00281453
0.00281011
0.00281142
0.00281664
0.00283185
0.00285622
0.00273119
0.0169327
0.0171054
0.0170854
0.0167076
0.0162261
0.0154576
0.0143331
0.0126909
0.0112439
0.0101804
0.00944608
0.00922861
0.00916509
0.00895939
0.00817244
0.00707568
0.00578395
0.00561233
0.00579145
0.00602485
0.00617382
0.0061938
0.00613427
0.00605032
0.00596961
0.00583376
0.00563597
0.00553745
0.00547858
0.00543535
0.00539776
0.0053613
0.00532509
0.00528904
0.00525316
0.00521587
0.00517711
0.0051273
0.00507787
0.00500521
0.00461553
0.0273891
0.0276459
0.0276261
0.0271277
0.0264128
0.0252961
0.0236704
0.021335
0.0191038
0.0174091
0.0162307
0.0157946
0.015617
0.0152313
0.0140568
0.0123166
0.00991516
0.00836819
0.00754176
0.00753492
0.00767502
0.00775332
0.00780804
0.00784508
0.00786177
0.00780982
0.0076812
0.00760252
0.00755497
0.0075261
0.00750749
0.00749324
0.00748035
0.00746696
0.0074518
0.00743252
0.00740817
0.00736933
0.00731647
0.00726254
0.00677685
0.0389776
0.039309
0.0392878
0.0387068
0.0378034
0.0364091
0.0343835
0.0314986
0.0285438
0.0262147
0.0245748
0.0238665
0.0235191
0.0229209
0.0213053
0.0189422
0.0155608
0.0129818
0.0113638
0.0103454
0.00971133
0.00939689
0.00943677
0.00951988
0.00956416
0.00954279
0.00947078
0.00944738
0.00944411
0.00944844
0.00945832
0.0094722
0.00948783
0.00950251
0.00951412
0.0095199
0.00951808
0.00950075
0.00946052
0.00943226
0.00897332
0.0511508
0.0515376
0.0515143
0.0508946
0.0498729
0.0483071
0.0460337
0.0427543
0.0391596
0.0363193
0.0342981
0.0333112
0.0327565
0.0319239
0.029899
0.0269015
0.0224086
0.0186673
0.0162632
0.0147088
0.0136212
0.0128468
0.0123139
0.0119377
0.0116627
0.0115016
0.0114335
0.0114298
0.0114241
0.0114231
0.0114379
0.0114655
0.0114977
0.0115287
0.0115566
0.0115793
0.0115943
0.0115944
0.0115677
0.0115565
0.0111515
0.063339
0.0637552
0.0637318
0.063116
0.0620578
0.0604425
0.0580843
0.0546563
0.0507854
0.0475267
0.0451655
0.0439227
0.0431405
0.042064
0.0396929
0.0359682
0.0305447
0.0257497
0.0224635
0.0202524
0.0187207
0.0176351
0.0168337
0.0162169
0.0157575
0.0153006
0.0147712
0.0143529
0.0140321
0.0138882
0.0138526
0.0138518
0.0138517
0.0138518
0.0138587
0.0138691
0.0138758
0.0138693
0.0138348
0.0138181
0.0134304
0.0750011
0.0754184
0.0753984
0.074822
0.0738039
0.0722543
0.0699456
0.0666962
0.0629179
0.0595377
0.0569216
0.0553962
0.0543667
0.0530497
0.0503187
0.0461827
0.0401653
0.0345425
0.0304276
0.0275153
0.0254127
0.0238928
0.0227713
0.0218985
0.0212303
0.0205794
0.0198086
0.0191505
0.0185982
0.0181337
0.0177437
0.0174102
0.0171298
0.0169613
0.016888
0.0168426
0.0167938
0.0167312
0.0166422
0.0165799
0.0161335
0.0856942
0.0860872
0.0860719
0.0855604
0.0846408
0.0832459
0.0811548
0.078283
0.0748671
0.0716494
0.0689989
0.0672414
0.0659839
0.0644227
0.0615538
0.0573186
0.0511202
0.0449971
0.0401926
0.0366042
0.0338977
0.0318841
0.0303835
0.0292093
0.0282935
0.0274243
0.0264371
0.0255729
0.0248332
0.0241869
0.0236119
0.0230911
0.0226099
0.0221625
0.0217466
0.0213553
0.0210054
0.0207327
0.0205044
0.0203427
0.0197619
0.0951324
0.0954828
0.0954717
0.0950377
0.0942492
0.0930585
0.0912809
0.0888849
0.0859893
0.083143
0.0806652
0.0788456
0.0774075
0.0757307
0.0729285
0.068882
0.0629347
0.0567284
0.0514436
0.047303
0.0440468
0.0415513
0.0396572
0.0381576
0.0369667
0.0358589
0.0346534
0.0335835
0.0326551
0.031837
0.0311025
0.0304311
0.0298059
0.0292129
0.0286409
0.0280792
0.0275186
0.0269559
0.0263787
0.0258978
0.0250183
0.103206
0.103504
0.103496
0.10314
0.10249
0.101514
0.100072
0.0981601
0.0958286
0.0934525
0.0912888
0.0895673
0.0881148
0.0864573
0.0838845
0.0802525
0.0749286
0.0689962
0.0635901
0.0590776
0.0554229
0.0525767
0.0503567
0.0485601
0.0471018
0.0457615
0.0443558
0.0430954
0.0419875
0.0410031
0.0401143
0.0392988
0.0385389
0.037819
0.037126
0.0364481
0.0357726
0.0350894
0.0343707
0.0337154
0.0325172
0.109953
0.110198
0.110191
0.109907
0.109386
0.108607
0.107473
0.105993
0.104182
0.102261
0.100475
0.0989653
0.0976262
0.0961125
0.0938893
0.0908218
0.0863129
0.081103
0.0760579
0.0715582
0.0677057
0.0645683
0.0620716
0.0600301
0.0583541
0.0568312
0.0552863
0.053885
0.0526334
0.0515085
0.0504857
0.0495438
0.048665
0.0478346
0.0470388
0.0462655
0.0455021
0.0447392
0.0439511
0.0432282
0.0419743
0.115508
0.115704
0.115699
0.115474
0.115063
0.114452
0.113575
0.112448
0.111069
0.109576
0.108133
0.106877
0.105724
0.104426
0.102601
0.100139
0.0965499
0.0923097
0.0880019
0.0838834
0.0801744
0.0770273
0.07443
0.0722504
0.0704206
0.0687588
0.0671005
0.0655883
0.0642276
0.0630006
0.0618831
0.0608539
0.0598941
0.0589948
0.0581348
0.0573016
0.0564844
0.0556748
0.0548534
0.0540959
0.0528847
0.120044
0.120199
0.120194
0.120018
0.119695
0.119219
0.118547
0.117694
0.116642
0.11551
0.114392
0.113371
0.112419
0.111355
0.109912
0.107987
0.105271
0.102039
0.0985963
0.095157
0.0918963
0.0890086
0.0865454
0.0844347
0.082615
0.0809452
0.0792923
0.0777706
0.0763852
0.0751228
0.0739651
0.072894
0.0718938
0.0709513
0.0700544
0.0691926
0.0683559
0.0675361
0.0667225
0.0659686
0.0648498
0.123736
0.123857
0.123853
0.123716
0.123462
0.123092
0.122576
0.121932
0.121145
0.120291
0.119433
0.118625
0.117857
0.117005
0.115891
0.114433
0.112439
0.110061
0.107482
0.104828
0.102188
0.0997699
0.0976332
0.095736
0.0940624
0.0925157
0.0909956
0.0895847
0.0882842
0.0870857
0.0859831
0.0849566
0.0839932
0.0830827
0.082216
0.0813849
0.0805817
0.0798004
0.0790303
0.078314
0.0773253
0.126741
0.126835
0.126832
0.126725
0.126525
0.126236
0.125842
0.125353
0.124768
0.12412
0.123461
0.122827
0.122217
0.121545
0.120696
0.119611
0.118175
0.116473
0.114619
0.112662
0.110668
0.108776
0.107061
0.105503
0.104107
0.1028
0.101514
0.100307
0.0991818
0.0981347
0.0971586
0.0962449
0.0953849
0.0945767
0.0938077
0.0930709
0.0923609
0.0916732
0.0910008
0.0903729
0.0895566
0.129194
0.129269
0.129267
0.129182
0.129024
0.128796
0.128498
0.128121
0.127673
0.12718
0.126674
0.126181
0.125702
0.125179
0.124536
0.123735
0.122709
0.121507
0.120202
0.11881
0.117374
0.115972
0.114673
0.113479
0.112385
0.111352
0.110337
0.109385
0.108491
0.107651
0.106861
0.106117
0.105414
0.104747
0.104113
0.103506
0.102927
0.10237
0.101828
0.101322
0.100698
0.131117
0.131176
0.131175
0.131107
0.13098
0.130798
0.130561
0.130266
0.129919
0.129537
0.129144
0.128762
0.128384
0.127972
0.127478
0.126877
0.126126
0.125262
0.124331
0.123339
0.122303
0.121283
0.120326
0.11943
0.118599
0.117812
0.117045
0.116318
0.115631
0.114983
0.114371
0.113793
0.11325
0.112735
0.112244
0.111776
0.111328
0.110898
0.110486
0.1101
0.109649
0.132573
0.132621
0.132621
0.132565
0.132461
0.132312
0.132119
0.131883
0.131607
0.131304
0.130991
0.130686
0.130384
0.130054
0.129664
0.1292
0.128635
0.127993
0.127301
0.126572
0.125811
0.125059
0.124343
0.123665
0.123038
0.122443
0.121862
0.12131
0.120791
0.1203
0.119836
0.119398
0.118983
0.118589
0.118218
0.117865
0.117529
0.117207
0.116898
0.116611
0.116289
0.133702
0.133743
0.133743
0.133697
0.133609
0.133484
0.133324
0.133134
0.132907
0.132663
0.13241
0.132162
0.13191
0.131638
0.131324
0.130957
0.130519
0.130029
0.129504
0.128954
0.128381
0.127816
0.127273
0.126759
0.126276
0.125817
0.125374
0.124954
0.124557
0.124181
0.123826
0.123493
0.123179
0.122881
0.122599
0.122331
0.122078
0.121838
0.121609
0.121397
0.121166
0.134602
0.134637
0.134637
0.134598
0.134524
0.134418
0.134282
0.134122
0.133934
0.133732
0.133523
0.133315
0.133103
0.132879
0.132621
0.132324
0.131978
0.131595
0.131187
0.130763
0.130323
0.12989
0.129473
0.129073
0.128696
0.128341
0.127997
0.127672
0.127363
0.127075
0.126803
0.126546
0.126306
0.12608
0.125864
0.125659
0.125466
0.125286
0.125117
0.124959
0.124793
0.135335
0.135365
0.135365
0.135332
0.135268
0.135176
0.13506
0.134923
0.134767
0.134599
0.134423
0.134245
0.134063
0.133873
0.133657
0.133415
0.133136
0.13283
0.132508
0.132174
0.13183
0.131489
0.131162
0.13085
0.130555
0.130275
0.130006
0.129753
0.129513
0.129286
0.129072
0.128873
0.128689
0.128515
0.128349
0.128192
0.128044
0.127906
0.127776
0.127657
0.127537
0.135941
0.135967
0.135968
0.135939
0.135883
0.135804
0.135704
0.135586
0.135451
0.135307
0.135156
0.135003
0.134847
0.134684
0.134502
0.134302
0.134073
0.133825
0.133567
0.133301
0.133027
0.132756
0.132498
0.132249
0.132015
0.131794
0.13158
0.13138
0.131192
0.131013
0.130845
0.130687
0.13054
0.130405
0.130276
0.130155
0.130041
0.129934
0.129833
0.129741
0.129651
0.136451
0.136474
0.136474
0.136449
0.1364
0.136331
0.136243
0.136141
0.136024
0.135899
0.135769
0.135636
0.135501
0.13536
0.135207
0.135038
0.134848
0.134644
0.134433
0.134217
0.133996
0.133779
0.133572
0.133372
0.133185
0.133007
0.132836
0.132676
0.132527
0.132384
0.13225
0.132125
0.132008
0.131899
0.131798
0.131703
0.131614
0.131531
0.131453
0.131381
0.131312
0.136884
0.136904
0.136905
0.136882
0.136839
0.136778
0.136701
0.136611
0.13651
0.136401
0.136287
0.136171
0.136053
0.135931
0.135799
0.135655
0.135496
0.135326
0.135152
0.134974
0.134793
0.134617
0.134448
0.134287
0.134134
0.13399
0.133852
0.133724
0.133603
0.133489
0.133381
0.133281
0.133187
0.1331
0.13302
0.132945
0.132875
0.13281
0.132749
0.132693
0.132641
0.137255
0.137273
0.137274
0.137254
0.137216
0.137162
0.137094
0.137015
0.136925
0.13683
0.13673
0.136628
0.136524
0.136417
0.136303
0.13618
0.136044
0.135903
0.135758
0.13561
0.135461
0.135316
0.135178
0.135045
0.13492
0.134803
0.13469
0.134586
0.134488
0.134396
0.134309
0.134228
0.134152
0.134082
0.134017
0.133958
0.133902
0.133851
0.133803
0.133759
0.133719
0.137577
0.137593
0.137594
0.137576
0.137542
0.137494
0.137434
0.137364
0.137285
0.1372
0.137112
0.137022
0.136931
0.136837
0.136737
0.136631
0.136516
0.136396
0.136274
0.13615
0.136027
0.135906
0.135791
0.135683
0.135579
0.135483
0.135392
0.135307
0.135227
0.135151
0.13508
0.135014
0.134952
0.134895
0.134843
0.134794
0.13475
0.134709
0.134671
0.134636
0.134604
0.137858
0.137872
0.137873
0.137857
0.137826
0.137783
0.13773
0.137667
0.137597
0.137522
0.137444
0.137364
0.137284
0.137201
0.137113
0.137022
0.136923
0.136821
0.136716
0.136611
0.136508
0.136407
0.136311
0.13622
0.136135
0.136055
0.135981
0.13591
0.135844
0.135782
0.135723
0.135669
0.135619
0.135572
0.135529
0.135489
0.135453
0.13542
0.13539
0.135362
0.135337
0.138104
0.138117
0.138118
0.138103
0.138076
0.138038
0.13799
0.137934
0.137871
0.137805
0.137735
0.137664
0.137592
0.137519
0.137442
0.137362
0.137276
0.137188
0.137099
0.13701
0.136923
0.136838
0.136758
0.136682
0.136611
0.136545
0.136483
0.136424
0.136368
0.136317
0.136268
0.136223
0.136182
0.136143
0.136108
0.136076
0.136046
0.136019
0.135995
0.135972
0.135953
0.138321
0.138333
0.138334
0.138321
0.138296
0.138262
0.138219
0.138169
0.138113
0.138053
0.137991
0.137928
0.137864
0.137799
0.13773
0.13766
0.137586
0.137509
0.137433
0.137358
0.137283
0.137212
0.137144
0.13708
0.137021
0.136965
0.136912
0.136862
0.136816
0.136772
0.136732
0.136695
0.136661
0.13663
0.136601
0.136574
0.13655
0.136528
0.136508
0.13649
0.136475
0.138514
0.138525
0.138525
0.138514
0.138492
0.13846
0.138422
0.138377
0.138327
0.138274
0.138218
0.138162
0.138104
0.138046
0.137985
0.137923
0.137858
0.137793
0.137727
0.137662
0.137599
0.137538
0.137481
0.137427
0.137377
0.13733
0.137285
0.137243
0.137204
0.137168
0.137134
0.137103
0.137075
0.137049
0.137025
0.137003
0.136983
0.136965
0.136948
0.136934
0.136922
0.138686
0.138696
0.138696
0.138686
0.138666
0.138638
0.138603
0.138562
0.138518
0.13847
0.13842
0.138369
0.138318
0.138266
0.138212
0.138157
0.138101
0.138043
0.137986
0.137931
0.137876
0.137825
0.137776
0.137731
0.137689
0.137649
0.137611
0.137575
0.137542
0.137511
0.137483
0.137457
0.137433
0.137411
0.137391
0.137373
0.137356
0.137341
0.137328
0.137316
0.137306
0.13884
0.138848
0.138849
0.138839
0.138821
0.138796
0.138765
0.138728
0.138688
0.138645
0.1386
0.138555
0.138509
0.138462
0.138414
0.138365
0.138316
0.138265
0.138216
0.138168
0.138123
0.138079
0.138038
0.137999
0.137963
0.137928
0.137895
0.137865
0.137836
0.13781
0.137786
0.137764
0.137744
0.137725
0.137708
0.137693
0.137679
0.137666
0.137655
0.137645
0.137637
0.138978
0.138985
0.138986
0.138977
0.138961
0.138938
0.13891
0.138877
0.138841
0.138802
0.138762
0.138721
0.13868
0.138638
0.138595
0.138552
0.138508
0.138464
0.138422
0.13838
0.138341
0.138303
0.138267
0.138234
0.138202
0.138172
0.138144
0.138117
0.138093
0.138071
0.13805
0.138031
0.138014
0.137998
0.137984
0.137971
0.137959
0.137949
0.137939
0.137931
0.137924
0.139102
0.139109
0.139109
0.139102
0.139087
0.139066
0.13904
0.139011
0.138978
0.138944
0.138908
0.138871
0.138834
0.138796
0.138758
0.138719
0.13868
0.138642
0.138604
0.138568
0.138534
0.138501
0.13847
0.13844
0.138413
0.138387
0.138363
0.13834
0.138319
0.1383
0.138283
0.138267
0.138252
0.138238
0.138226
0.138215
0.138205
0.138196
0.138188
0.138182
0.138176
0.139214
0.13922
0.139221
0.139214
0.1392
0.139182
0.139159
0.139132
0.139103
0.139071
0.139039
0.139006
0.138972
0.138939
0.138905
0.13887
0.138836
0.138802
0.138769
0.138737
0.138707
0.138678
0.138651
0.138625
0.138601
0.138579
0.138558
0.138538
0.138521
0.138504
0.138489
0.138475
0.138463
0.138451
0.138441
0.138431
0.138423
0.138416
0.138409
0.138403
0.138399
0.139315
0.139321
0.139322
0.139315
0.139303
0.139286
0.139265
0.139241
0.139215
0.139187
0.139158
0.139128
0.139098
0.139068
0.139037
0.139007
0.138976
0.138946
0.138917
0.138889
0.138863
0.138837
0.138814
0.138791
0.13877
0.138751
0.138733
0.138716
0.138701
0.138687
0.138674
0.138662
0.138651
0.138641
0.138632
0.138624
0.138617
0.13861
0.138605
0.1386
0.138596
0.139407
0.139413
0.139413
0.139407
0.139396
0.139381
0.139362
0.139341
0.139317
0.139292
0.139266
0.139239
0.139212
0.139185
0.139158
0.139131
0.139104
0.139077
0.139051
0.139027
0.139003
0.138981
0.138961
0.138941
0.138923
0.138906
0.13889
0.138876
0.138862
0.13885
0.138839
0.138828
0.138819
0.13881
0.138803
0.138796
0.13879
0.138784
0.138779
0.138775
0.138772
0.139491
0.139496
0.139496
0.139491
0.139481
0.139467
0.139451
0.139431
0.13941
0.139387
0.139364
0.13934
0.139316
0.139292
0.139268
0.139244
0.139219
0.139196
0.139173
0.139152
0.139131
0.139112
0.139093
0.139077
0.139061
0.139046
0.139032
0.13902
0.139008
0.138997
0.138987
0.138978
0.13897
0.138963
0.138956
0.13895
0.138945
0.13894
0.138936
0.138932
0.13893
0.139567
0.139571
0.139572
0.139567
0.139558
0.139546
0.139531
0.139514
0.139495
0.139475
0.139454
0.139433
0.139411
0.13939
0.139368
0.139346
0.139325
0.139304
0.139284
0.139265
0.139247
0.13923
0.139214
0.1392
0.139186
0.139173
0.139161
0.13915
0.139139
0.13913
0.139121
0.139113
0.139106
0.1391
0.139094
0.139089
0.139084
0.13908
0.139077
0.139074
0.139071
0.139636
0.13964
0.139641
0.139637
0.139629
0.139618
0.139604
0.139589
0.139572
0.139554
0.139536
0.139517
0.139498
0.139479
0.13946
0.139441
0.139422
0.139404
0.139386
0.139369
0.139354
0.139339
0.139325
0.139312
0.139299
0.139288
0.139277
0.139268
0.139259
0.13925
0.139243
0.139236
0.13923
0.139224
0.139219
0.139215
0.139211
0.139207
0.139204
0.139201
0.139199
0.1397
0.139703
0.139704
0.1397
0.139693
0.139683
0.139672
0.139658
0.139643
0.139628
0.139611
0.139595
0.139578
0.139561
0.139544
0.139527
0.139511
0.139495
0.139479
0.139465
0.139451
0.139438
0.139426
0.139414
0.139403
0.139394
0.139384
0.139376
0.139368
0.139361
0.139354
0.139348
0.139342
0.139337
0.139333
0.139329
0.139326
0.139322
0.13932
0.139317
0.139315
0.139758
0.139761
0.139761
0.139758
0.139752
0.139743
0.139733
0.139722
0.139709
0.139695
0.139681
0.139666
0.139652
0.139637
0.139622
0.139608
0.139593
0.139579
0.139566
0.139553
0.139541
0.139529
0.139519
0.139509
0.139499
0.139491
0.139482
0.139475
0.139468
0.139462
0.139456
0.13945
0.139445
0.139441
0.139437
0.139434
0.13943
0.139428
0.139425
0.139423
0.139421
0.139811
0.139813
0.139814
0.139811
0.139806
0.139799
0.13979
0.13978
0.139769
0.139758
0.139746
0.139733
0.13972
0.139708
0.139695
0.139682
0.13967
0.139658
0.139646
0.139635
0.139624
0.139614
0.139605
0.139596
0.139588
0.13958
0.139573
0.139567
0.139561
0.139555
0.13955
0.139545
0.139541
0.139537
0.139533
0.13953
0.139527
0.139525
0.139523
0.139521
0.139519
0.139859
0.139861
0.139862
0.139859
0.139855
0.139849
0.139842
0.139834
0.139825
0.139816
0.139806
0.139795
0.139785
0.139774
0.139763
0.139753
0.139742
0.139732
0.139722
0.139712
0.139703
0.139694
0.139686
0.139679
0.139672
0.139665
0.139659
0.139653
0.139647
0.139642
0.139638
0.139634
0.13963
0.139626
0.139623
0.13962
0.139618
0.139615
0.139613
0.139611
0.13961
0.139904
0.139906
0.139906
0.139904
0.139901
0.139896
0.139891
0.139885
0.139878
0.139871
0.139863
0.139855
0.139846
0.139838
0.139829
0.13982
0.139812
0.139803
0.139795
0.139787
0.139779
0.139772
0.139765
0.139759
0.139752
0.139747
0.139741
0.139736
0.139731
0.139727
0.139723
0.139719
0.139716
0.139712
0.13971
0.139707
0.139705
0.139702
0.1397
0.139699
0.139697
0.139945
0.139946
0.139946
0.139945
0.139943
0.13994
0.139937
0.139933
0.139928
0.139923
0.139918
0.139912
0.139907
0.139901
0.139894
0.139888
0.139882
0.139875
0.139869
0.139863
0.139857
0.139851
0.139846
0.139841
0.139835
0.139831
0.139826
0.139822
0.139818
0.139814
0.13981
0.139807
0.139804
0.139801
0.139799
0.139796
0.139794
0.139792
0.13979
0.139788
0.139787
0.139983
0.139983
0.139983
0.139983
0.139982
0.139981
0.13998
0.139978
0.139977
0.139975
0.139973
0.139971
0.139969
0.139966
0.139963
0.139961
0.139958
0.139955
0.139952
0.139949
0.139946
0.139943
0.13994
0.139937
0.139934
0.139931
0.139928
0.139925
0.139922
0.13992
0.139917
0.139915
0.139912
0.13991
0.139908
0.139906
0.139904
0.139902
0.139901
0.139899
0.139897
0.00257734
0.00396129
0.00525933
0.00642468
0.00748018
0.00845383
0.00936718
0.0102368
0.0110759
0.0118954
0.0127043
0.0135106
0.0143213
0.0151423
0.0159793
0.016837
0.0177194
0.0186302
0.0195721
0.0205473
0.0215575
0.0226036
0.0236861
0.0248047
0.0259591
0.0271484
0.02837
0.0296215
0.0309091
0.0322403
0.0335779
0.0348212
0.0360008
0.0376998
0.0410595
0.0466687
0.0536562
0.0605911
0.0666708
0.0717928
0.0761311
0.0798734
0.0831567
0.0860697
0.0886789
0.0910345
0.0931749
0.0951296
0.096923
0.0985753
0.100104
0.101522
0.102842
0.104076
0.105232
0.10632
0.107347
0.108319
0.109242
0.11012
0.110957
0.111757
0.112524
0.113261
0.11397
0.114653
0.115312
0.115948
0.116563
0.117161
0.117735
0.118312
0.118783
0.119634
0.00397994
0.0051674
0.00625793
0.00725706
0.00818888
0.00907195
0.00991802
0.0107369
0.0115376
0.012328
0.013115
0.0139051
0.0147039
0.0155167
0.0163483
0.0172027
0.0180837
0.0189942
0.0199368
0.0209133
0.0219252
0.022973
0.0240572
0.0251775
0.0263333
0.0275238
0.0287466
0.029999
0.0312859
0.0326151
0.0339573
0.0352204
0.0364078
0.0380086
0.041087
0.046324
0.0530331
0.0598509
0.0659222
0.0710789
0.075461
0.0792451
0.0825645
0.0855101
0.088149
0.0905313
0.0926973
0.094676
0.096491
0.0981631
0.0997096
0.101145
0.10248
0.103728
0.104898
0.106
0.10704
0.108024
0.108958
0.109847
0.110694
0.111504
0.11228
0.113025
0.113741
0.114432
0.115098
0.115741
0.116364
0.116967
0.117548
0.118132
0.118608
0.119468
0.00566425
0.00672284
0.00770154
0.00858785
0.00940982
0.0101953
0.0109595
0.0117119
0.0124598
0.0132091
0.0139651
0.0147325
0.0155157
0.0163187
0.0171449
0.0179977
0.0188797
0.0197932
0.02074
0.0217215
0.0227385
0.0237914
0.0248802
0.0260044
0.0271635
0.0283564
0.0295811
0.0308349
0.0321203
0.033445
0.0347913
0.0360845
0.0372949
0.0387612
0.0413805
0.0459329
0.0520597
0.058575
0.0645665
0.0697502
0.0741937
0.0780445
0.0814274
0.0844324
0.0871268
0.0895608
0.0917735
0.0937949
0.09565
0.0973598
0.0989418
0.10041
0.101778
0.103056
0.104253
0.10538
0.106444
0.107452
0.108408
0.109317
0.110185
0.111013
0.111807
0.112569
0.113302
0.114007
0.114688
0.115346
0.115982
0.1166
0.117194
0.117791
0.118278
0.119157
0.00759701
0.0084847
0.00933619
0.0101285
0.0108745
0.0115959
0.0123063
0.0130146
0.0137279
0.0144518
0.0151908
0.0159486
0.0167285
0.0175336
0.0183663
0.0192287
0.0201226
0.0210494
0.0220101
0.0230052
0.0240353
0.0251001
0.0261994
0.0273324
0.0284985
0.0296966
0.0309251
0.0321814
0.033466
0.0347849
0.0361312
0.0374535
0.0387026
0.040061
0.0421835
0.0458573
0.051103
0.0570551
0.0628109
0.0679519
0.0724352
0.0763536
0.079811
0.0828909
0.0856576
0.0881603
0.0904373
0.0925193
0.0944316
0.0961953
0.0978281
0.0993448
0.100758
0.102079
0.103318
0.104483
0.105583
0.106625
0.107613
0.108554
0.10945
0.110307
0.111128
0.111915
0.112672
0.113401
0.114105
0.114784
0.115442
0.116079
0.116693
0.11731
0.117813
0.118721
0.0096212
0.0103735
0.0111149
0.0118239
0.0125073
0.0131829
0.013862
0.0145512
0.0152557
0.0159797
0.0167263
0.0174983
0.0182977
0.0191263
0.0199855
0.0208762
0.0217992
0.022755
0.0237437
0.0247654
0.0258197
0.0269063
0.0280245
0.0291734
0.0303523
0.0315601
0.0327956
0.0340567
0.0353426
0.0366567
0.0379988
0.0393404
0.0406332
0.041942
0.0436626
0.0464509
0.0506148
0.0557126
0.0609896
0.0659348
0.0703754
0.0743213
0.0778365
0.080987
0.0838288
0.086407
0.0887582
0.0909119
0.0928933
0.0947232
0.0964193
0.0979964
0.0994673
0.100843
0.102135
0.10335
0.104497
0.105583
0.106613
0.107594
0.10853
0.109423
0.110279
0.111101
0.11189
0.11265
0.113384
0.114092
0.114777
0.115442
0.116081
0.116724
0.117249
0.118194
0.0116924
0.0123637
0.0130442
0.0137111
0.0143657
0.0150228
0.015694
0.0163854
0.0171016
0.0178455
0.0186193
0.0194242
0.020261
0.02113
0.0220313
0.0229648
0.0239302
0.0249269
0.0259544
0.027012
0.028099
0.0292146
0.0303579
0.031528
0.032724
0.033945
0.0351899
0.0364572
0.0377458
0.0390568
0.040392
0.0417398
0.0430664
0.0443743
0.0458514
0.0479348
0.0510218
0.0550577
0.0595758
0.0640909
0.068329
0.0722021
0.0757137
0.0788977
0.081793
0.0844353
0.0868558
0.0890813
0.0911346
0.0930356
0.0948011
0.0964457
0.0979821
0.0994214
0.100773
0.102047
0.103249
0.104389
0.10547
0.1065
0.107482
0.10842
0.109319
0.110182
0.111011
0.111809
0.112579
0.113323
0.114042
0.114739
0.11541
0.116084
0.116636
0.117626
0.0139265
0.0145779
0.0152577
0.0159396
0.0166183
0.0173033
0.0180051
0.0187294
0.0194805
0.0202613
0.0210739
0.0219191
0.0227972
0.0237081
0.0246511
0.0256254
0.0266301
0.0276642
0.0287266
0.0298161
0.0309316
0.0320722
0.0332368
0.0344243
0.0356338
0.0368644
0.0381153
0.0393853
0.0406732
0.0419789
0.0433037
0.0446449
0.0459849
0.0473079
0.0486777
0.0503221
0.0525578
0.0555373
0.0591053
0.0629373
0.0667502
0.0703827
0.0737715
0.0769054
0.0797957
0.0824613
0.084923
0.0872008
0.0893134
0.0912775
0.0931081
0.0948186
0.0964207
0.0979247
0.0993403
0.100676
0.101939
0.103136
0.104274
0.105357
0.106391
0.10738
0.108327
0.109237
0.110111
0.110952
0.111764
0.112548
0.113307
0.114042
0.114749
0.115459
0.116042
0.117083
0.0166322
0.0173258
0.0180665
0.0188203
0.0195752
0.0203344
0.0211054
0.0218933
0.0227013
0.0235325
0.024389
0.0252724
0.0261834
0.0271225
0.0280896
0.0290845
0.0301065
0.0311549
0.0322288
0.0333272
0.0344492
0.0355936
0.0367595
0.0379458
0.0391516
0.040376
0.041618
0.0428767
0.0441513
0.0454408
0.0467456
0.0480656
0.0493945
0.0507193
0.0520503
0.0534778
0.0551824
0.0573376
0.0599796
0.0629859
0.0661668
0.0693586
0.0724568
0.0754079
0.0781903
0.0808002
0.0832423
0.0855259
0.0876619
0.0896616
0.0915364
0.0932967
0.0949524
0.0965124
0.0979851
0.0993782
0.100698
0.101952
0.103146
0.104284
0.105371
0.106411
0.107409
0.108367
0.109288
0.110176
0.111032
0.11186
0.11266
0.113435
0.114182
0.114931
0.115546
0.116643
0.0202954
0.0210781
0.0219223
0.0227817
0.023639
0.0244918
0.025345
0.0262033
0.0270696
0.027947
0.0288384
0.0297459
0.0306712
0.0316158
0.0325807
0.0335666
0.0345741
0.0356033
0.0366543
0.0377267
0.0388202
0.0399343
0.0410683
0.0422214
0.043393
0.0445821
0.0457881
0.04701
0.0482471
0.0494984
0.0507635
0.0520423
0.0533333
0.0546306
0.0559306
0.0572583
0.0586898
0.0603349
0.0622763
0.0645195
0.0669955
0.0696038
0.0722506
0.0748669
0.0774083
0.0798497
0.0821786
0.0843906
0.0864864
0.0884697
0.0903457
0.0921206
0.0938008
0.0953928
0.0969029
0.0983371
0.0997013
0.101001
0.102241
0.103426
0.10456
0.105647
0.106691
0.107694
0.108661
0.109592
0.110491
0.111361
0.112201
0.113017
0.113802
0.11459
0.115237
0.11639
0.0255237
0.0263634
0.0272864
0.0282253
0.0291572
0.0300753
0.0309821
0.0318816
0.0327772
0.0336722
0.0345701
0.0354737
0.0363854
0.0373074
0.0382414
0.0391891
0.0401517
0.0411303
0.0421258
0.0431387
0.0441694
0.0452182
0.0462851
0.0473699
0.0484723
0.049592
0.0507283
0.0518809
0.0530489
0.0542318
0.0554288
0.0566396
0.0578638
0.0590995
0.0603437
0.0615997
0.0628904
0.0642636
0.0657763
0.0674678
0.0693408
0.0713646
0.0734901
0.0756664
0.0778499
0.0800075
0.082116
0.0841601
0.0861308
0.0880234
0.0898365
0.0915704
0.0932272
0.0948098
0.0963215
0.097766
0.0991473
0.100469
0.101735
0.102949
0.104115
0.105235
0.106313
0.107352
0.108353
0.10932
0.110255
0.111159
0.112035
0.112885
0.113703
0.114525
0.115202
0.116404
0.0328342
0.0335625
0.0344316
0.0353472
0.0362688
0.03718
0.0380774
0.0389627
0.0398385
0.0407074
0.0415724
0.0424364
0.043302
0.0441715
0.0450471
0.0459306
0.0468236
0.0477273
0.0486431
0.049572
0.050515
0.0514728
0.0524459
0.0534348
0.0544396
0.0554606
0.0564977
0.0575507
0.0586194
0.0597035
0.0608027
0.0619164
0.0630445
0.0641865
0.0653415
0.0665089
0.0676933
0.0689087
0.0701796
0.0715332
0.0729889
0.074551
0.0762087
0.0779408
0.079722
0.0815273
0.0833347
0.0851263
0.0868886
0.0886113
0.0902877
0.0919132
0.0934855
0.0950034
0.0964671
0.0978775
0.0992359
0.100544
0.101805
0.10302
0.104191
0.105321
0.106412
0.107466
0.108485
0.109472
0.110427
0.111353
0.112251
0.113123
0.113965
0.11481
0.115508
0.116745
0.0421489
0.0426753
0.0433171
0.0440648
0.0448646
0.0456799
0.0464964
0.0473085
0.0481137
0.0489121
0.0497052
0.0504953
0.0512846
0.052075
0.0528682
0.0536655
0.0544686
0.0552789
0.0560976
0.0569261
0.0577653
0.0586161
0.0594793
0.0603554
0.0612451
0.0621489
0.0630672
0.0640002
0.0649481
0.0659111
0.0668891
0.0678819
0.0688897
0.0699122
0.0709497
0.0720021
0.0730697
0.0741551
0.0752648
0.0764095
0.0776012
0.0788495
0.0801587
0.0815264
0.0829451
0.0844036
0.0858892
0.0873891
0.0888917
0.0903866
0.0918654
0.0933213
0.0947492
0.0961452
0.0975067
0.0988321
0.100121
0.101372
0.102586
0.103764
0.104907
0.106015
0.10709
0.108132
0.109144
0.110127
0.111081
0.112009
0.11291
0.113787
0.114635
0.115488
0.116194
0.117443
0.0529388
0.0533218
0.0537683
0.0542328
0.0547474
0.0553576
0.0560223
0.0567029
0.0573865
0.0580717
0.0587584
0.0594463
0.0601344
0.0608228
0.0615122
0.0622043
0.0629006
0.0636025
0.0643111
0.0650273
0.0657518
0.0664853
0.0672286
0.0679824
0.0687474
0.0695245
0.0703141
0.0711168
0.0719329
0.0727627
0.0736065
0.0744644
0.0753367
0.0762237
0.0771258
0.0780435
0.078977
0.0799264
0.0808923
0.081877
0.0828842
0.0839188
0.0849852
0.0860862
0.0872224
0.0883918
0.0895901
0.0908119
0.0920505
0.0932993
0.0945517
0.0958018
0.0970443
0.0982745
0.0994889
0.100684
0.101858
0.103009
0.104136
0.105238
0.106314
0.107365
0.10839
0.109389
0.110364
0.111315
0.112242
0.113145
0.114026
0.114886
0.115719
0.116558
0.117256
0.118488
0.064786
0.065016
0.0652999
0.065596
0.0659032
0.0662278
0.0665738
0.0669625
0.0674339
0.067961
0.068511
0.0690656
0.0696205
0.0701782
0.0707415
0.0713114
0.0718881
0.072471
0.0730595
0.0736538
0.0742543
0.0748622
0.0754785
0.0761041
0.0767399
0.0773863
0.0780439
0.0787128
0.0793933
0.0800858
0.0807907
0.0815085
0.0822397
0.0829847
0.0837442
0.0845186
0.0853083
0.0861133
0.0869332
0.087768
0.0886177
0.0894835
0.0903669
0.0912697
0.0921933
0.0931385
0.094105
0.0950916
0.0960961
0.0971157
0.0981469
0.0991862
0.10023
0.101275
0.102317
0.103354
0.104382
0.1054
0.106406
0.107398
0.108374
0.109334
0.110277
0.111203
0.11211
0.113
0.113871
0.114724
0.115559
0.116377
0.117172
0.117974
0.118644
0.119827
0.0771537
0.0772345
0.0773598
0.0774941
0.0776357
0.0777889
0.077958
0.0781463
0.0783569
0.0785914
0.0788499
0.0791339
0.0794705
0.0798631
0.0802885
0.0807289
0.0811752
0.0816238
0.0820753
0.0825333
0.0830002
0.0834774
0.083965
0.0844626
0.0849699
0.0854864
0.086012
0.0865469
0.0870918
0.0876475
0.0882148
0.0887941
0.0893859
0.0899907
0.0906087
0.0912402
0.0918855
0.0925448
0.0932179
0.0939045
0.0946043
0.0953171
0.0960428
0.0967816
0.097534
0.0983004
0.0990812
0.0998763
0.100686
0.101508
0.102343
0.103189
0.104044
0.104905
0.105772
0.106641
0.107511
0.108379
0.109244
0.110104
0.110957
0.111803
0.112639
0.113465
0.11428
0.115084
0.115875
0.116654
0.11742
0.118173
0.118907
0.119651
0.120274
0.121376
0.0893159
0.0892729
0.0892625
0.0892581
0.089258
0.0892657
0.0892853
0.0893199
0.0893721
0.0894436
0.089535
0.0896468
0.0897794
0.0899335
0.0901092
0.0903057
0.0905223
0.0907593
0.0910324
0.0913458
0.0916864
0.0920428
0.0924084
0.0927803
0.0931575
0.0935408
0.0939323
0.0943344
0.0947483
0.0951743
0.0956123
0.0960619
0.0965227
0.0969946
0.0974776
0.0979721
0.0984786
0.0989977
0.0995296