/*--------------------------------*- C++ -*----------------------------------*\
  =========                 |
  \\      /  F ield         | OpenFOAM: The Open Source CFD Toolbox
   \\    /   O peration     | Website:  https://openfoam.org
    \\  /    A nd           | Version:  11
     \\/     M anipulation  |
\*---------------------------------------------------------------------------*/
FoamFile
{
    format      ascii;
    class       volScalarField;
    location    "150";
    object      p;
}
// * * * * * * * * * * * * * * * * * * * * * * * * * * * * * * * * * * * * * //

dimensions      [0 2 -2 0 0 0 0];

internalField   nonuniform List<scalar> 
11040
(
376.351
356.315
308.946
237.044
153.005
46.113
-61.356
-136.099
-128.054
-118.733
-147.262
-205.108
-339.051
-507.236
-653.06
-665.629
-592.596
-386.415
-254.564
-206.703
-180.725
-156.319
-135.951
-120.582
-109.395
-102.978
-90.5828
-67.9551
-53.8301
-43.463
-33.2128
-23.0798
-13.4141
-4.07544
5.19715
14.5917
24.217
34.46
45.1415
58.2673
69.1202
369.181
349.734
307.356
244.804
169.598
77.219
-17.085
-86.2714
-103.857
-109.393
-141.536
-199.675
-317.661
-463.355
-590.494
-613.657
-566.989
-395.25
-265.211
-211.739
-183.261
-158.211
-137.415
-121.647
-109.999
-102.862
-90.6733
-69.0544
-54.7139
-44.1371
-33.8289
-23.6597
-13.9541
-4.58462
4.7045
14.1054
23.7237
33.9525
44.548
57.7048
67.9695
357.056
338.983
301.199
245.824
177.461
95.2729
9.41808
-59.8101
-94.2242
-109.177
-139.964
-194.947
-296.995
-424.212
-539.961
-574.355
-543.082
-401.839
-273.57
-214.287
-184.387
-159.384
-138.366
-122.262
-110.181
-102.334
-90.5608
-70.0862
-55.3335
-44.5274
-34.2202
-24.0463
-14.3169
-4.93248
4.3573
13.7502
23.346
33.5365
44.0219
57.073
66.7019
341.326
324.575
291.028
242.677
182.173
110.331
33.9564
-31.9566
-76.2949
-100.534
-132.772
-186.038
-274.85
-384.64
-488.521
-532.39
-516.956
-403.387
-281.618
-217.662
-185.909
-160.802
-139.505
-122.997
-110.442
-101.786
-90.3258
-71.1218
-56.0885
-45.0515
-34.7461
-24.5695
-14.8147
-5.4169
3.86737
13.2406
22.7954
32.9133
43.2458
56.0182
65.0092
322.288
306.824
277.414
235.851
183.429
121.49
54.6386
-6.11272
-55.9341
-89.5143
-124.423
-175.46
-251.886
-344.668
-435.15
-483.687
-483.764
-399.712
-289.785
-222.288
-187.793
-162.376
-140.834
-123.854
-110.757
-101.192
-89.9211
-72.1631
-57.057
-45.7337
-35.401
-25.2343
-15.463
-6.05951
3.2043
12.5331
22.0117
31.9957
42.1004
54.367
62.6905
300.305
286.134
260.68
225.447
180.918
128.365
70.8333
16.234
-34.7993
-75.2073
-112.904
-161.555
-227.156
-304.631
-381.987
-432.26
-445.431
-390.172
-296.231
-227.388
-189.804
-163.937
-142.275
-124.816
-111.134
-100.632
-89.401
-73.1349
-58.1914
-46.5675
-36.1854
-26.053
-16.2851
-6.89046
2.33077
11.5804
20.9352
30.7067
40.4931
52.0168
59.7337
275.955
263.076
241.302
211.807
174.645
130.752
82.0894
34.2014
-14.5456
-58.3569
-98.3064
-144.685
-201.096
-265.325
-330.415
-379.71
-402.598
-373.142
-298.789
-232.276
-191.978
-165.416
-143.725
-125.837
-111.555
-100.169
-88.8403
-73.9562
-59.4306
-47.574
-37.1237
-27.0478
-17.3152
-7.95489
1.19236
10.3166
19.4855
28.949
38.3146
48.8842
56.0826
249.941
238.329
219.89
195.473
164.92
128.804
88.3471
47.3141
3.19923
-40.5145
-81.2445
-125.212
-173.935
-227.124
-281.313
-327.311
-356.021
-347.837
-295.273
-235.634
-194.029
-166.646
-145.001
-126.831
-111.993
-99.8306
-88.3062
-74.5729
-60.6771
-48.7316
-38.2154
-28.2174
-18.566
-9.28141
-0.250935
8.68972
17.5979
26.6499
35.4908
44.9663
51.6847
223.03
212.637
197.149
177.125
152.299
122.967
89.8677
55.4734
17.2279
-23.4915
-62.9592
-104.013
-146.299
-190.518
-235.448
-276.742
-307.647
-314.995
-283.89
-235.444
-195.149
-167.297
-145.819
-127.612
-112.365
-99.585
-87.8343
-74.9788
-61.8345
-49.9927
-39.4546
-29.5549
-20.0352
-10.8815
-2.02298
6.66701
15.2338
23.7795
32.0066
40.3563
46.5544
196
186.761
173.834
157.529
137.531
113.961
87.2588
59.008
26.9753
-8.86825
-45.0907
-82.4228
-119.119
-156.093
-193.375
-229.407
-259.697
-276.556
-263.924
-229.531
-193.97
-166.799
-145.774
-127.859
-112.478
-99.3097
-87.3898
-75.1833
-62.8197
-51.2837
-40.8248
-31.0616
-21.7297
-12.7754
-4.1548
4.2162
12.3668
20.3361
27.8882
35.1839
40.7884
169.589
161.431
150.691
137.482
121.467
102.68
81.39
58.5931
32.4958
2.3545
-29.2183
-61.998
-93.5482
-124.532
-155.496
-186.279
-214.13
-235.276
-236.28
-216.367
-188.715
-164.164
-144.268
-127.105
-112.006
-98.7797
-86.8495
-75.1624
-63.5481
-52.4906
-42.2653
-32.7191
-23.648
-14.9756
-6.67099
1.31055
8.97843
16.3285
23.18
29.5507
34.5389
144.455
137.3
128.412
117.747
104.969
90.0842
73.2648
55.1363
34.3357
9.88918
-16.4162
-44.1114
-70.7208
-96.5339
-122.165
-148
-172.467
-194.13
-203.428
-195.901
-177.853
-158.078
-140.449
-124.701
-110.447
-97.619
-85.9607
-74.8067
-63.92
-53.4732
-43.6593
-34.4549
-25.741
-17.4479
-9.55197
-2.03673
5.09006
11.8025
17.9661
23.5521
27.9807
121.134
114.912
107.582
98.9935
88.8238
77.081
63.8873
49.6365
33.3361
14.0532
-7.06446
-29.6105
-51.4755
-72.6661
-93.6649
-114.962
-135.704
-155.636
-168.646
-169.848
-160.993
-147.426
-133.35
-119.865
-107.136
-95.2826
-84.3098
-73.8656
-63.7653
-54.0504
-44.8289
-36.1265
-27.8955
-20.0931
-12.7052
-5.73249
0.806807
6.88076
12.3944
17.3201
21.2855
100.009
94.6531
88.6369
81.7401
73.665
64.4342
54.1424
43.0398
30.4283
15.5334
-0.932487
-18.6984
-36.1621
-53.1908
-70.0994
-87.3055
-104.352
-121.482
-135.031
-141.117
-139.353
-132.044
-122.345
-111.91
-101.39
-91.1312
-81.3455
-71.9281
-62.7899
-53.9629
-45.5197
-37.5004
-29.903
-22.7158
-15.9385
-9.58171
-3.66738
1.77564
6.68524
11.0472
14.6321
81.2973
76.7461
71.8391
66.3219
59.9288
52.6985
44.7091
36.1208
26.4571
15.1279
2.56952
-11.0608
-24.6369
-37.9949
-51.3176
-64.9089
-78.5078
-92.5183
-104.814
-112.742
-115.337
-113.062
-107.676
-100.648
-92.8082
-84.6515
-76.5288
-68.5109
-60.5981
-52.8669
-45.4015
-38.2558
-31.4559
-25.0166
-18.9528
-13.2822
-8.02692
-3.20985
1.13124
4.99268
8.24149
65.1455
61.3344
57.3582
52.9583
47.9089
42.2612
36.0805
29.4697
22.1121
13.5846
4.15605
-6.08953
-16.4004
-26.6342
-36.892
-47.3745
-57.9224
-68.9332
-79.1967
-87.0392
-91.5891
-92.5349
-90.5757
-86.6823
-81.5674
-75.7286
-69.5619
-63.2346
-56.8027
-50.3861
-44.0967
-38.008
-32.1666
-26.6069
-21.3574
-16.4423
-11.8839
-7.70091
-3.91598
-0.528258
2.38891
51.6293
48.4887
45.294
41.7962
37.8178
33.4176
28.6482
23.5754
17.9932
11.6131
4.60266
-2.99442
-10.6916
-18.3828
-26.122
-34.033
-42.0183
-50.3995
-58.4981
-65.3013
-70.1943
-72.6917
-72.9215
-71.3987
-68.597
-64.9067
-60.6826
-56.1154
-51.2778
-46.3047
-41.3236
-36.422
-31.6596
-27.083
-22.7301
-18.6305
-14.8074
-11.278
-8.05789
-5.1464
-2.5833
41.0367
38.4369
35.8749
33.0756
29.9112
26.4475
22.7251
18.7874
14.499
9.66722
4.40066
-1.27788
-7.05216
-12.8475
-18.6913
-24.6551
-30.6699
-36.9712
-43.1781
-48.6794
-53.0789
-55.9519
-57.2131
-57.0996
-55.8782
-53.8071
-51.1575
-48.0978
-44.6904
-41.0573
-37.3205
-33.568
-29.8627
-26.2551
-22.7861
-19.4877
-16.3841
-13.4927
-10.8268
-8.38881
-6.20147
32.9854
30.8124
28.7338
26.4593
23.9009
21.1266
18.1675
15.0533
11.6931
7.95685
3.91899
-0.407122
-4.80996
-9.23703
-13.702
-18.2463
-22.8217
-27.5913
-32.3308
-36.6633
-40.3379
-43.0324
-44.614
-45.1837
-44.8794
-43.8565
-42.3059
-40.3587
-38.0597
-35.5064
-32.802
-30.0242
-27.2311
-24.4702
-21.7809
-19.1941
-16.7336
-14.4164
-12.2552
-10.2549
-8.43115
26.8119
24.9858
23.2811
21.41
19.3139
17.0591
14.6693
12.1655
9.48579
6.54148
3.3858
0.0278217
-3.3869
-6.82084
-10.2802
-13.7885
-17.3101
-20.9574
-24.5931
-27.9764
-30.9467
-33.2702
-34.8251
-35.6526
-35.8209
-35.4201
-34.5791
-33.3943
-31.8932
-30.1486
-28.2418
-26.2361
-24.1805
-22.1159
-20.0767
-18.0909
-16.1798
-14.3595
-12.6419
-11.0337
-9.54624
22.0014
20.461
19.0498
17.4948
15.7591
13.9046
11.9498
9.90993
7.74256
5.38665
2.88161
0.234542
-2.45188
-5.15021
-7.8627
-10.6022
-13.3419
-16.1592
-18.9659
-21.6043
-23.9698
-25.8947
-27.2821
-28.1486
-28.528
-28.4721
-28.0668
-27.3803
-26.4284
-25.2635
-23.9465
-22.5265
-21.0422
-19.5268
-18.0086
-16.5112
-15.053
-13.6481
-12.3074
-11.038
-9.84877
18.2036
16.9005
15.7234
14.4207
12.9711
11.4311
9.81561
8.13579
6.36252
4.45363
2.43909
0.324961
-1.81476
-3.95961
-6.1096
-8.27138
-10.4242
-12.6214
-14.8043
-16.8667
-18.7392
-20.3015
-21.4814
-22.286
-22.7326
-22.8516
-22.7003
-22.3268
-21.7399
-20.9763
-20.0807
-19.0896
-18.0327
-16.9357
-15.8212
-14.7079
-13.611
-12.5426
-11.5119
-10.5256
-9.59123
15.1713
14.0664
13.0781
11.9793
10.76
9.47098
8.12422
6.72847
5.26371
3.70082
2.06306
0.355884
-1.3664
-3.08821
-4.8084
-6.52994
-8.23663
-9.96525
-11.6755
-13.2943
-14.7748
-16.0302
-17.0084
-17.7132
-18.1539
-18.3495
-18.3388
-18.1557
-17.8053
-17.313
-16.7113
-16.0269
-15.2819
-14.4959
-13.6861
-12.8672
-12.0514
-11.2482
-10.4654
-9.709
-8.98518
12.7269
11.7882
10.9536
10.0215
8.98964
7.90337
6.77244
5.60394
4.38427
3.09338
1.74967
0.358123
-1.04078
-2.43498
-3.82275
-5.20493
-6.56879
-7.9397
-9.28921
-10.5662
-11.7385
-12.7431
-13.5429
-14.1409
-14.5428
-14.7609
-14.8223
-14.7513
-14.5506
-14.2385
-13.8381
-13.369
-12.8474
-12.288
-11.7037
-11.1058
-10.5037
-9.90499
-9.31594
-8.74147
-8.18695
10.7399
9.94085
9.23267
8.438
7.56015
6.63928
5.68358
4.69896
3.67636
2.60211
1.49096
0.347524
-0.797651
-1.93509
-3.06284
-4.18054
-5.27815
-6.37321
-7.4452
-8.45784
-9.38874
-10.1919
-10.8412
-11.3395
-11.6908
-11.9037
-11.9975
-11.9898
-11.8825
-11.6884
-11.4244
-11.1046
-10.7412
-10.3447
-9.92508
-9.4907
-9.04873
-8.60513
-8.16479
-7.73166
-7.31041
9.11282
8.43167
7.82798
7.14752
6.39721
5.61248
4.80037
3.96598
3.10346
2.20367
1.27858
0.332426
-0.611471
-1.54559
-2.46794
-3.37756
-4.26649
-5.14688
-6.00373
-6.81095
-7.55284
-8.19557
-8.72103
-9.13211
-9.43191
-9.62673
-9.73065
-9.75677
-9.70638
-9.58887
-9.41647
-9.19963
-8.94711
-8.66689
-8.36624
-8.05152
-7.72814
-7.40067
-7.07292
-6.74795
-6.42983
7.77194
7.19054
6.67378
6.08882
5.44481
4.77294
4.07942
3.36875
2.6374
1.87943
1.10464
0.316915
-0.465774
-1.2374
-1.99607
-2.74056
-3.46455
-4.1765
-4.86528
-5.512
-6.10561
-6.62109
-7.04604
-7.3833
-7.6355
-7.80749
-7.90977
-7.95216
-7.93577
-7.8675
-7.75638
-7.61009
-7.43512
-7.23739
-7.0223
-6.79462
-6.55845
-6.31725
-6.07398
-5.83095
-5.59171
6.66068
6.16388
5.71983
5.21512
4.6602
4.08248
3.48756
2.8795
2.25641
1.61464
0.962301
0.302896
-0.349596
-0.99032
-1.61754
-2.22997
-2.82263
-3.40139
-3.95797
-4.47861
-4.95552
-5.37013
-5.71407
-5.9901
-6.2005
-6.34916
-6.44403
-6.49258
-6.49581
-6.45893
-6.38862
-6.29062
-6.16975
-6.03041
-5.87666
-5.71207
-5.53973
-5.36227
-5.18198
-5.00056
-4.82113
5.73516
5.31025
4.92729
4.49033
4.01042
3.51166
2.99917
2.47671
1.94355
1.39765
0.845778
0.291091
-0.25548
-0.79
-1.31093
-1.81703
-2.3044
-2.77714
-3.22905
-3.6501
-4.0348
-4.36935
-4.64822
-4.87401
-5.04875
-5.17561
-5.2607
-5.30977
-5.32378
-5.30667
-5.26348
-5.19851
-5.11537
-5.01739
-4.9076
-4.78869
-4.663
-4.53253
-4.39903
-4.26378
-4.12945
4.96095
4.59726
4.26583
3.88628
3.46979
3.03754
2.59431
2.14361
1.68556
1.21923
0.75031
0.281629
-0.178213
-0.62603
-1.06048
-1.48046
-1.8829
-2.27072
-2.63927
-2.98123
-3.29279
-3.56366
-3.79031
-3.97516
-4.11997
-4.22741
-4.30221
-4.34885
-4.36822
-4.36339
-4.33815
-4.29577
-4.23899
-4.17033
-4.09206
-4.00625
-3.91465
-3.81878
-3.72001
-3.61925
-3.51883
4.31086
3.99936
3.71156
3.38081
3.01811
2.64211
2.25731
1.86704
1.472
1.07205
0.671999
0.27436
-0.114071
-0.490712
-0.854423
-1.20425
-1.53783
-1.85725
-2.15904
-2.43789
-2.69118
-2.91127
-3.09599
-3.24755
-3.36752
-3.45812
-3.52307
-3.56588
-3.5874
-3.58999
-3.57658
-3.54966
-3.51133
-3.46349
-3.40789
-3.34609
-3.27943
-3.20908
-3.13608
-3.06111
-2.98615
3.76318
3.49626
3.24549
2.95633
2.63939
2.3111
1.97578
1.63658
1.29462
0.950294
0.60768
0.269013
-0.060327
-0.378254
-0.68382
-0.976244
-1.25371
-1.51776
-1.76583
-1.99408
-2.20076
-2.38021
-2.53122
-2.65577
-2.75523
-2.83148
-2.88746
-2.92596
-2.94773
-2.95465
-2.94898
-2.93263
-2.90722
-2.87421
-2.83495
-2.79062
-2.74226
-2.69074
-2.6369
-2.58121
-2.52537
3.3005
3.07167
2.85243
2.59879
2.32085
2.03315
1.73983
1.44394
1.14683
0.849293
0.554789
0.265286
-0.0149455
-0.284231
-0.541801
-0.787043
-1.0186
-1.23761
-1.44225
-1.62975
-1.79901
-1.94584
-2.06969
-2.1723
-2.2549
-2.31905
-2.3671
-2.40127
-2.42225
-2.43153
-2.43085
-2.42172
-2.40537
-2.38296
-2.35549
-2.32391
-2.28899
-2.25142
-2.21184
-2.17059
-2.12912
2.90874
2.71249
2.52013
2.29686
2.05223
1.79912
1.54156
1.28246
1.02338
0.765317
0.511245
0.262882
0.0236161
-0.20522
-0.423025
-0.629341
-0.823177
-1.00544
-1.17481
-1.32937
-1.46847
-1.58902
-1.69093
-1.77573
-1.84447
-1.89848
-1.93966
-1.96976
-1.98941
-1.9998
-2.0023
-1.99807
-1.98809
-1.97325
-1.95434
-1.93208
-1.90708
-1.87985
-1.85093
-1.82051
-1.78988
2.57644
2.40808
2.23867
2.04138
1.82522
1.60163
1.37455
1.14679
0.920006
0.69535
0.47536
0.261532
0.0565489
-0.138543
-0.323293
-0.49739
-0.66014
-0.812281
-0.952922
-1.08075
-1.19545
-1.29478
-1.37893
-1.44922
-1.50659
-1.55215
-1.58742
-1.61382
-1.63191
-1.64263
-1.64708
-1.64615
-1.64063
-1.6312
-1.61849
-1.60305
-1.58537
-1.56583
-1.54487
-1.5226
-1.50012
2.29429
2.14977
1.99995
1.82489
1.63307
1.43469
1.23361
1.03258
0.833276
0.636942
0.445748
0.260989
0.0847739
-0.0820891
-0.23929
-0.386642
-0.523697
-0.651086
-0.768243
-0.87431
-0.969213
-1.05134
-1.12107
-1.17954
-1.22757
-1.26609
-1.29635
-1.31947
-1.33595
-1.34655
-1.35214
-1.35342
-1.35102
-1.34547
-1.33728
-1.32686
-1.3146
-1.30082
-1.28583
-1.26972
-1.25342
2.05462
1.93046
1.79738
1.6413
1.47025
1.29338
1.11449
0.936246
0.760358
0.588075
0.421264
0.261023
0.109006
-0.0341915
-0.168374
-0.293478
-0.409241
-0.516239
-0.614142
-0.702446
-0.781233
-0.849382
-0.907364
-0.95618
-0.996517
-1.02918
-1.05517
-1.0754
-1.0903
-1.1005
-1.10667
-1.10938
-1.10911
-1.10632
-1.10137
-1.09461
-1.08635
-1.07682
-1.06629
-1.0548
-1.04314
1.85115
1.74436
1.62551
1.48561
1.33225
1.1737
1.0137
0.854877
0.698925
0.547077
0.400932
0.26141
0.129783
0.00646757
-0.108449
-0.215005
-0.313094
-0.403252
-0.485341
-0.559107
-0.624752
-0.681515
-0.729923
-0.770839
-0.804856
-0.832661
-0.855061
-0.872814
-0.886276
-0.895959
-0.902392
-0.906042
-0.907286
-0.906478
-0.903919
-0.89989
-0.89462
-0.888311
-0.881164
-0.87321
-0.865117
1.67871
1.58663
1.47985
1.35365
1.21529
1.07229
0.928359
0.786053
0.647054
0.512557
0.383929
0.261922
0.147496
0.0409082
-0.0578535
-0.148919
-0.232309
-0.308537
-0.377604
-0.439446
-0.494339
-0.54179
-0.582347
-0.616751
-0.645516
-0.669226
-0.688544
-0.704089
-0.716166
-0.725195
-0.731596
-0.735742
-0.737933
-0.738453
-0.737542
-0.735425
-0.732286
-0.728288
-0.723595
-0.718221
-0.712738
1.53306
1.45336
1.35669
1.24195
1.11616
0.986266
0.855936
0.727663
0.603077
0.483316
0.369534
0.262338
0.162424
0.0699166
-0.0152884
-0.0934008
-0.164548
-0.229231
-0.287566
-0.339623
-0.38573
-0.425596
-0.459765
-0.488873
-0.513367
-0.533743
-0.550547
-0.564285
-0.575222
-0.583699
-0.590049
-0.59457
-0.597502
-0.59907
-0.599463
-0.598864
-0.59742
-0.595263
-0.592528
-0.589219
-0.58583
1.41073
1.3414
1.25315
1.14786
1.03243
0.913369
0.794356
0.677857
0.56545
0.458178
0.356994
0.262344
0.174702
0.0940618
0.0202509
-0.0470174
-0.107946
-0.163037
-0.212483
-0.256453
-0.295293
-0.328866
-0.357685
-0.382303
-0.403101
-0.420511
-0.434984
-0.446945
-0.456623
-0.464304
-0.470257
-0.474724
-0.477895
-0.479952
-0.481045
-0.481321
-0.480895
-0.479876
-0.478376
-0.476393
-0.474352
1.30881
1.24811
1.1669
1.06942
0.96249
0.852252
0.742452
0.635571
0.533182
0.436276
0.345628
0.261535
0.184245
0.113631
0.0494202
-0.0087318
-0.0611192
-0.108234
-0.150354
-0.18771
-0.220688
-0.249244
-0.273882
-0.29505
-0.313091
-0.32835
-0.341212
-0.352008
-0.360949
-0.368256
-0.37416
-0.378842
-0.382469
-0.385173
-0.387087
-0.388312
-0.388957
-0.389094
-0.38883
-0.388144
-0.387417
1.22485
1.1709
1.09515
1.00391
0.903968
0.801137
0.699065
0.600189
0.506046
0.417598
0.335524
0.260042
0.191251
0.128926
0.0727066
0.0221789
-0.0230259
-0.0634047
-0.0992854
-0.13094
-0.158756
-0.18277
-0.203459
-0.221212
-0.236337
-0.249139
-0.259949
-0.269048
-0.276626
-0.28287
-0.287974
-0.292088
-0.29535
-0.297868
-0.29975
-0.301075
-0.301929
-0.302368
-0.302479
-0.302243
-0.301967
1.15702
1.10761
1.03495
0.947489
0.852414
0.755374
0.659921
0.568231
0.481601
0.40078
0.326249
0.258125
0.196414
0.140869
0.0911156
0.0467165
0.00724729
-0.0278132
-0.058864
-0.086244
-0.110365
-0.131337
-0.149591
-0.165445
-0.179156
-0.190967
-0.201138
-0.209888
-0.217372
-0.223739
-0.229145
-0.233708
-0.237545
-0.240741
-0.243389
-0.245551
-0.247301
-0.248683
-0.249771
-0.250547
-0.251264
1.10423
1.05808
0.986972
0.900824
0.80753
0.713151
0.621487
0.534796
0.454201
0.380161
0.312783
0.251851
0.197083
0.148071
0.104381
0.0655907
0.0313196
0.00113851
-0.025303
-0.0483161
-0.0682797
-0.0853614
-0.0999936
-0.112489
-0.123117
-0.132126
-0.13977
-0.146254
-0.151731
-0.156336
-0.160203
-0.163432
-0.166119
-0.168331
-0.17014
-0.171593
-0.172746
-0.17363
-0.174297
-0.174744
-0.175122
1.06559
1.02393
0.956679
0.873428
0.781909
0.688364
0.597221
0.511255
0.432071
0.360378
0.296338
0.239642
0.189773
0.14604
0.1077
0.0740388
0.0444224
0.0182666
-0.00488571
-0.0253881
-0.0435883
-0.0596394
-0.0738402
-0.0863791
-0.0974239
-0.107128
-0.115657
-0.123145
-0.129709
-0.135448
-0.140474
-0.144867
-0.148715
-0.152081
-0.155033
-0.157619
-0.159896
-0.161895
-0.163667
-0.165218
-0.166649
1.04012
1.00194
0.939184
0.86137
0.775465
0.686944
0.599697
0.516375
0.438626
0.367428
0.303237
0.246122
0.195903
0.152208
0.114554
0.082387
0.0551398
0.0322124
0.0130482
-0.0028736
-0.016053
-0.0268741
-0.0357882
-0.0431194
-0.0491473
-0.0541082
-0.0582159
-0.061629
-0.0644738
-0.0668417
-0.0688246
-0.0704789
-0.0718654
-0.0730165
-0.0739754
-0.074761
-0.0754053
-0.0759199
-0.0763258
-0.0766447
-0.076839
1.0269
0.979655
0.904481
0.817163
0.727277
0.640334
0.55911
0.48471
0.417343
0.356743
0.302443
0.253877
0.210475
0.171687
0.13701
0.105997
0.0782574
0.0534567
0.0313113
0.01158
-0.0059738
-0.0215535
-0.0353823
-0.047604
-0.0583721
-0.0678359
-0.0761446
-0.0834265
-0.0898042
-0.0953884
-0.100282
-0.104576
-0.108351
-0.11168
-0.114623
-0.117238
-0.11957
-0.121666
-0.123546
-0.125293
-0.126743
103.02
71.0104
53.3614
50.1306
45.731
39.9861
35.2992
31.5822
28.2933
25.3309
22.7114
20.3952
18.3302
16.4821
14.8259
13.3397
12.0036
10.801
9.71724
8.73989
7.85746
7.06049
6.33986
5.68793
5.09762
4.5628
4.07746
3.63728
3.23619
2.87127
2.53731
2.23172
1.94314
1.67197
1.41092
1.17699
0.996623
0.874341
0.800953
0.7607
0.733151
0.713405
0.694427
0.674431
0.650902
0.627007
0.600376
0.572688
0.545128
0.516923
0.488272
0.461027
0.433454
0.406811
0.381103
0.355899
0.332207
0.308899
0.287108
0.265736
0.245572
0.225779
0.206575
0.187666
0.169101
0.150906
0.132762
0.115072
0.096865
0.0801676
0.0581506
0.0473704
-0.00446912
0.0519657
99.9504
71.037
53.4891
50.0374
45.6845
39.9625
35.2758
31.5642
28.2804
25.3208
22.7032
20.3887
18.325
16.4778
14.8224
13.3368
12.0012
10.7991
9.71562
8.73854
7.85635
7.05955
6.33908
5.68727
5.09707
4.56232
4.07706
3.63691
3.2359
2.87097
2.53704
2.23135
1.94301
1.67233
1.41215
1.17875
0.998399
0.875802
0.802093
0.761306
0.733616
0.713581
0.694423
0.674239
0.650679
0.626696
0.600066
0.572452
0.544909
0.516764
0.488204
0.460993
0.433477
0.406863
0.381158
0.355987
0.332272
0.308959
0.287133
0.265739
0.245539
0.225715
0.20648
0.187542
0.168952
0.150732
0.132574
0.114874
0.0966621
0.079954
0.0579573
0.0471525
-0.00452213
0.051654
95.5765
70.9684
53.5479
49.7677
45.5585
39.9045
35.2211
31.5213
28.25
25.2974
22.6845
20.3737
18.313
16.4682
14.8145
13.3304
11.996
10.7948
9.71214
8.73567
7.85401
7.05762
6.3375
5.68597
5.09599
4.56142
4.07633
3.63628
3.2354
2.87052
2.53659
2.23079
1.94292
1.67335
1.41524
1.18328
1.00307
0.879687
0.804937
0.762996
0.734751
0.714136
0.6946
0.67411
0.650432
0.626291
0.59964
0.572062
0.544514
0.516429
0.487947
0.460766
0.433318
0.406739
0.381047
0.355916
0.332186
0.308885
0.287031
0.265629
0.2454
0.225557
0.2063
0.187345
0.168736
0.150499
0.132333
0.114631
0.0964223
0.0797039
0.0577476
0.0468936
-0.00448497
0.0511729
90.1755
70.3108
53.4825
49.3098
45.305
39.784
35.117
31.4391
28.1922
25.2539
22.6501
20.3468
18.2919
16.4514
14.8011
13.3196
11.9874
10.7878
9.70651
8.73112
7.85036
7.05466
6.33512
5.68405
5.09445
4.56019
4.07534
3.63546
3.23478
2.87002
2.53607
2.23018
1.94284
1.67479
1.41984
1.1904
1.01079
0.886314
0.809799
0.766006
0.736676
0.715129
0.694963
0.674041
0.650131
0.625773
0.599062
0.571472
0.543896
0.515866
0.48745
0.460301
0.432929
0.406394
0.380728
0.355648
0.331924
0.308653
0.286789
0.265395
0.245151
0.225304
0.206038
0.18708
0.168461
0.150217
0.132052
0.114357
0.0961593
0.0794316
0.0575354
0.0466053
-0.00433227
0.0505114
83.8743
68.7878
53.2287
48.6255
44.8452
39.5536
34.9348
31.2931
28.0882
25.1769
22.5902
20.3003
18.2558
16.4231
14.7788
13.302
11.9734
10.7767
9.6977
8.72411
7.8448
7.05025
6.33163
5.68131
5.0923
4.55851
4.07405
3.63444
3.23405
2.86947
2.53562
2.22966
1.94287
1.67634
1.42509
1.19922
1.02099
0.89555
0.816773
0.77044
0.739432
0.716524
0.695467
0.67393
0.649702
0.625048
0.598245
0.570624
0.543008
0.515026
0.486682
0.459563
0.432281
0.405803
0.380177
0.355164
0.331459
0.308241
0.28638
0.265015
0.244768
0.224935
0.205673
0.186723
0.168105
0.149864
0.131711
0.11403
0.0958538
0.0791201
0.0573069
0.0462734
-0.00405704
0.0496335
76.8611
66.2114
52.6112
47.6565
44.092
39.1461
34.6342
31.049
27.9091
25.0443
22.4874
20.2203
18.1939
16.3747
14.7409
13.2721
11.9498
10.7581
9.68301
8.7125
7.83566
7.04304
6.32597
5.67688
5.08887
4.55586
4.07204
3.63289
3.23295
2.86868
2.53507
2.2292
1.94298
1.67771
1.4301
1.20834
1.03233
0.906555
0.825539
0.776271
0.743059
0.718361
0.696098
0.673754
0.649088
0.62407
0.597138
0.569463
0.541797
0.513864
0.485599
0.458519
0.431341
0.404934
0.379368
0.354437
0.330772
0.307628
0.285792
0.264474
0.244243
0.224437
0.205193
0.186266
0.167661
0.149433
0.131302
0.113643
0.0954999
0.0787644
0.0570592
0.0458933
-0.00364014
0.0485025
69.3517
62.4854
51.3923
46.3368
42.9666
38.476
34.1611
30.665
27.618
24.8262
22.3177
20.0868
18.0893
16.2925
14.6758
13.2206
11.9089
10.7256
9.65721
8.69199
7.81938
7.03012
6.31576
5.66883
5.08255
4.55093
4.06826
3.62997
3.23079
2.86711
2.53402
2.22851
1.94315
1.679
1.43451
1.21672
1.04324
0.917819
0.835047
0.782912
0.747253
0.720463
0.696738
0.673389
0.648185
0.622726
0.595638
0.5679
0.540189
0.512308
0.484145
0.457113
0.430061
0.403745
0.378263
0.353435
0.32983
0.306786
0.284997
0.263753
0.243555
0.223798
0.204588
0.185698
0.167118
0.148914
0.130817
0.113188
0.0950914
0.0783602
0.0567911
0.0454634
-0.00305979
0.0470822
61.6227
57.6861
49.3443
44.5739
41.4042
37.4471
33.4448
30.0914
27.171
24.4859
22.0512
19.8749
17.921
16.1584
14.5685
13.1343
11.8397
10.6699
9.61234
8.65586
7.79032
7.00674
6.297
5.6538
5.07055
4.54139
4.06074
3.62404
3.22623
2.86362
2.53151
2.22679
1.94281
1.68003
1.43839
1.22412
1.05286
0.927937
0.843882
0.789302
0.75133
0.722427
0.697119
0.672659
0.646838
0.620898
0.593637
0.565835
0.538092
0.510284
0.482247
0.455288
0.428388
0.40219
0.376821
0.352117
0.328599
0.305681
0.283969
0.262825
0.242689
0.223001
0.203844
0.185007
0.166467
0.148299
0.130247
0.112659
0.0946228
0.0779037
0.0565014
0.0449834
-0.00229373
0.0453392
53.9413
52.0428
46.3222
42.2464
39.3536
35.97
32.4
29.2678
26.5173
23.9792
21.6524
19.5554
17.6643
15.9518
14.4012
12.9985
11.7291
10.5798
9.53886
8.59588
7.74136
6.9668
6.26444
5.6273
5.04904
4.52396
4.04671
3.61275
3.2173
2.8566
2.52619
2.22294
1.94106
1.68034
1.44173
1.23079
1.06123
0.936415
0.851034
0.794258
0.754233
0.723435
0.696659
0.671132
0.64473
0.618331
0.590926
0.563099
0.535369
0.50767
0.479808
0.452961
0.426253
0.40021
0.374988
0.35044
0.327036
0.304275
0.28267
0.261661
0.241615
0.222027
0.202946
0.184183
0.165698
0.147579
0.129584
0.112046
0.094086
0.0773891
0.0561884
0.0444538
-0.00132537
0.0432523
46.4503
45.8404
42.3165
39.2327
36.7641
33.9729
30.9337
28.1209
25.5979
23.2538
21.0776
19.0927
17.2898
15.648
14.1537
12.796
11.563
10.4432
9.42637
8.50313
7.66484
6.90364
6.21232
5.58433
5.01365
4.49488
4.0229
3.5933
3.20156
2.84395
2.51629
2.21545
1.93654
1.67885
1.44389
1.23665
1.06871
0.943573
0.856468
0.797349
0.755278
0.722753
0.694689
0.668269
0.641422
0.61469
0.587238
0.559473
0.531839
0.50432
0.476705
0.450033
0.423574
0.397737
0.372709
0.348355
0.325104
0.302528
0.281066
0.260225
0.240306
0.220851
0.201875
0.18321
0.164802
0.146747
0.128821
0.111344
0.0934752
0.0768113
0.0558492
0.0438757
-0.000147903
0.0408201
39.1313
39.3108
37.4488
35.4586
33.5781
31.4015
28.9583
26.5661
24.3433
22.2482
20.2727
18.4421
16.7603
15.2161
13.8002
12.5054
11.3235
10.2454
9.26263
8.36734
7.55209
6.80993
6.13441
5.51954
4.95982
4.4502
3.98591
3.56274
3.17648
2.82352
2.49998
2.20278
1.92795
1.67441
1.44395
1.24104
1.07511
0.949625
0.860517
0.798752
0.754383
0.720059
0.690761
0.663572
0.636444
0.609552
0.582208
0.554651
0.52725
0.500024
0.472766
0.446363
0.420235
0.394681
0.369911
0.345805
0.322748
0.300398
0.279115
0.25848
0.238728
0.219445
0.200611
0.182075
0.163769
0.145794
0.127953
0.110546
0.0927843
0.0761649
0.0554804
0.0432504
0.00122848
0.0380705
31.9052
32.6011
31.9197
30.9419
29.7548
28.2215
26.408
24.52
22.6773
20.8929
19.1745
17.5482
16.0288
14.6161
13.307
12.0988
10.9874
9.9669
9.03144
8.17508
7.39198
6.67643
6.023
5.42652
4.88216
4.38539
3.93192
3.51784
3.13934
2.79298
2.47527
2.18329
1.91384
1.66576
1.44082
1.24301
1.07976
0.954279
0.863227
0.798708
0.751814
0.715517
0.684889
0.656934
0.629591
0.602675
0.57558
0.548385
0.521369
0.494576
0.467806
0.441798
0.416106
0.390936
0.366508
0.342721
0.31992
0.297839
0.276778
0.256387
0.236844
0.217776
0.199125
0.180756
0.162584
0.144715
0.126976
0.109651
0.0920105
0.0754461
0.0550773
0.042579
0.00277333
0.0350609
24.7481
25.8159
25.9547
25.8035
25.3145
24.4346
23.2575
21.9241
20.5314
19.1203
17.7165
16.349
15.0401
13.7997
12.6323
11.5402
10.5241
9.58202
8.71124
7.90831
7.16944
6.4906
5.86768
5.29664
4.77353
4.29455
3.85604
3.45458
3.08679
2.7496
2.43994
2.15515
1.89272
1.65161
1.43336
1.24151
1.08175
0.956855
0.864194
0.797045
0.747566
0.709192
0.677146
0.648382
0.620827
0.593963
0.567213
0.540507
0.514023
0.4878
0.46166
0.436183
0.411051
0.386384
0.362401
0.339025
0.316553
0.294802
0.274012
0.25391
0.234617
0.215808
0.197385
0.179226
0.16123
0.143497
0.125883
0.108656
0.0911518
0.074653
0.0546359
0.0418625
0.00443637
0.0318773
17.7337
19.0732
19.7795
20.2467
20.3707
20.1069
19.5399
18.7706
17.8694
16.8819
15.8436
14.7869
13.7381
12.7149
11.7288
10.7877
9.89684
9.05891
8.27468
7.54372
6.86473
6.23577
5.65446
5.11818
4.62415
4.16956
3.75156
3.36738
3.01427
2.68963
2.39091
2.11585
1.86253
1.63017
1.42007
1.23522
1.07992
0.956434
0.862749
0.793328
0.741399
0.700978
0.667502
0.637923
0.61016
0.583412
0.55708
0.530963
0.505131
0.479605
0.454221
0.429412
0.404962
0.380925
0.3575
0.334637
0.312589
0.291237
0.27078
0.251012
0.232016
0.213507
0.195359
0.177457
0.15968
0.142124
0.124666
0.107559
0.090208
0.0737857
0.0541524
0.0411032
0.00615312
0.0286201
11.0312
12.5467
13.6324
14.5297
15.1323
15.3935
15.3699
15.1294
14.7189
14.1755
13.5342
12.8268
12.0806
11.317
10.5522
9.79896
9.06675
8.36242
7.69049
7.05383
6.45396
5.89135
5.3657
4.87612
4.4213
3.99967
3.60944
3.24872
2.91552
2.60789
2.32391
2.06186
1.82039
1.59902
1.39885
1.22236
1.07273
0.95173
0.857891
0.786798
0.732768
0.690479
0.655671
0.625346
0.597426
0.570882
0.545059
0.51964
0.49459
0.469886
0.445385
0.421381
0.397737
0.374459
0.351715
0.329478
0.307955
0.287088
0.267036
0.247659
0.229008
0.210844
0.193017
0.175416
0.157908
0.140573
0.12331
0.106351
0.0891769
0.0728459
0.0536249
0.0403055
0.00785527
0.0253935
4.88094
6.47109
7.7776
8.93951
9.87109
10.5297
10.9448
11.155
11.1878
11.068
10.8224
10.4777
10.0577
9.58339
9.07259
8.54031
7.99895
7.45846
6.92658
6.40917
5.91056
5.43373
4.98064
4.55238
4.14937
3.77151
3.41829
3.08891
2.78236
2.49751
2.23319
1.98834
1.7622
1.55467
1.36673
1.20038
1.058
0.940934
0.848176
0.776352
0.720853
0.677093
0.641202
0.610304
0.582349
0.556148
0.530962
0.506377
0.482252
0.458516
0.435032
0.411979
0.389272
0.366885
0.344949
0.323459
0.302578
0.282292
0.262731
0.243811
0.225562
0.207788
0.190327
0.173074
0.155884
0.138819
0.121796
0.105023
0.0880551
0.071835
0.0530519
0.0394767
0.00947952
0.0222901
-0.400452
1.15755
2.539
3.81499
4.92418
5.8333
6.55269
7.09955
7.48602
7.72485
7.83226
7.82616
7.72433
7.54369
7.30004
7.00785
6.67995
6.32753
5.9601
5.58558
5.21044
4.83984
4.47782
4.12742
3.79084
3.46958
3.16455
2.87622
2.6047
2.34986
2.11139
1.88902
1.68264
1.49254
1.31974
1.16589
1.03281
0.921581
0.831579
0.760376
0.704394
0.659845
0.623333
0.592189
0.564435
0.538788
0.514431
0.490866
0.467853
0.445263
0.422962
0.401029
0.37941
0.358063
0.337078
0.316468
0.296356
0.276764
0.257797
0.239416
0.221638
0.204308
0.187263
0.170402
0.15358
0.136836
0.120103
0.103561
0.0868353
0.0707541
0.0524327
0.0386269
0.0109766
0.0193864
-4.3435
-2.91111
-1.58043
-0.322315
0.823034
1.83233
2.70572
3.44724
4.05916
4.54537
4.91301
5.17153
5.3315
5.40413
5.40092
5.33328
5.21218
5.0479
4.84984
4.62639
4.38495
4.13189
3.87258
3.61148
3.35224
3.09773
2.8502
2.61132
2.38233
2.16409
1.95726
1.76233
1.57986
1.41061
1.25573
1.1167
0.995046
0.891714
0.806441
0.737588
0.682514
0.638212
0.601825
0.570966
0.543784
0.518979
0.495684
0.473336
0.451618
0.430345
0.409374
0.38871
0.36831
0.348125
0.328213
0.308594
0.289366
0.270568
0.252287
0.23452
0.217277
0.20044
0.183852
0.167421
0.151005
0.134626
0.118227
0.10196
0.0855141
0.0696038
0.0517609
0.0377636
0.0122997
0.0167339
-6.88716
-5.63573
-4.4366
-3.28316
-2.20053
-1.20421
-0.298491
0.514083
1.23061
1.84974
2.37252
2.80203
3.14283
3.40071
3.58246
3.69555
3.74783
3.74723
3.70158
3.61834
3.50451
3.3665
3.21009
3.04036
2.86174
2.67802
2.49238
2.30744
2.12535
1.94788
1.77646
1.61235
1.45671
1.31074
1.17581
1.05338
0.944896
0.851278
0.772588
0.707831
0.655163
0.612301
0.576931
0.547002
0.520844
0.497208
0.475217
0.454274
0.434006
0.414187
0.394656
0.37537
0.356284
0.337347
0.31859
0.300041
0.281776
0.263844
0.246322
0.229228
0.212571
0.196263
0.180164
0.164187
0.148205
0.132223
0.116192
0.100236
0.0841025