/*--------------------------------*- C++ -*----------------------------------*\
  =========                 |
  \\      /  F ield         | OpenFOAM: The Open Source CFD Toolbox
   \\    /   O peration     | Website:  https://openfoam.org
    \\  /    A nd           | Version:  11
     \\/     M anipulation  |
\*---------------------------------------------------------------------------*/
FoamFile
{
    format      ascii;
    class       surfaceScalarField;
    location    "150";
    object      phi;
}
// * * * * * * * * * * * * * * * * * * * * * * * * * * * * * * * * * * * * * //

dimensions      [0 3 -1 0 0 0 0];

internalField   nonuniform List<scalar> 
21876
(
0.00520366
-0.00520409
4.28827e-07
0.0107809
-0.00557722
0.0164456
-0.00566473
0.0214092
-0.0049636
0.0264972
-0.00508797
0.0306362
-0.00413898
0.0328327
-0.00219655
0.0314888
0.00134386
0.0308413
0.000647502
0.0313021
-0.000460776
0.0326351
-0.001333
0.0362875
-0.00365243
0.0400489
-0.00376135
0.0424315
-0.00238266
0.0396811
0.00275041
0.0322474
0.00743374
0.0212085
0.0110389
0.0170801
0.00412831
0.0169832
9.69806e-05
0.0175139
-0.000530724
0.0180632
-0.000549304
0.0184249
-0.000361775
0.0186603
-0.000235353
0.0189012
-0.000240891
0.0192044
-0.000303283
0.0189119
0.000292583
0.0181347
0.000777095
0.0179232
0.000211559
0.017732
0.000191204
0.0175696
0.000162375
0.0174044
0.000165141
0.0172123
0.000192138
0.0169857
0.000226564
0.0167169
0.000268778
0.0163945
0.000322442
0.0159992
0.00039526
0.0155014
0.000497816
0.0148499
0.000651498
0.013988
0.000861888
0.012488
0.00149998
0.0026418
0.00984619
0.00601927
-0.0112284
5.03941e-06
0.0123645
-0.0119225
0.0187596
-0.0120598
0.0245749
-0.0107789
0.0302287
-0.0107417
0.0348523
-0.00876255
0.0378984
-0.00524268
0.0384441
0.000798189
0.038921
0.000170616
0.0399962
-0.001536
0.0417373
-0.00307408
0.0453178
-0.007233
0.0488679
-0.00731145
0.0513065
-0.00482121
0.0508445
0.00321235
0.0472808
0.0109975
0.0389798
0.01934
0.0330164
0.0100917
0.0296739
0.00343943
0.0277752
0.00136795
0.026899
0.000326894
0.0265642
-2.69272e-05
0.0264347
-0.000105905
0.026448
-0.000254162
0.0265993
-0.000454603
0.0263832
0.000508621
0.0257103
0.00145005
0.0253315
0.000590318
0.0249757
0.000546982
0.0246698
0.000468264
0.0243982
0.000436725
0.0241327
0.000457666
0.0238548
0.000504413
0.0235494
0.000574173
0.0232022
0.000669676
0.0227934
0.000804073
0.0223033
0.000987912
0.0216702
0.00128462
0.0209233
0.00160875
0.0197071
0.00271621
0.00531062
0.0170382
0.00703129
-0.0182666
6.89435e-06
0.0143211
-0.0192123
0.0216233
-0.0193619
0.0283586
-0.0175142
0.0347509
-0.0171341
0.0402023
-0.014214
0.0441268
-0.00916712
0.0456897
-0.000764741
0.0468177
-0.000957386
0.0483797
-0.00309799
0.050589
-0.00528336
0.0543422
-0.0109862
0.0582043
-0.0111736
0.0608197
-0.00743662
0.0602501
0.00378203
0.0573908
0.0138567
0.0511033
0.0256275
0.0458539
0.0153412
0.0422259
0.00706743
0.0394697
0.00412409
0.0376674
0.00212917
0.0366611
0.000979461
0.0360717
0.000483408
0.0357679
4.96238e-05
0.0356672
-0.000353887
0.0352197
0.000956146
0.0343771
0.00229261
0.0338802
0.0010872
0.0334405
0.000986744
0.0330448
0.000863901
0.0326818
0.000799778
0.0323243
0.000815112
0.0319542
0.000874506
0.0315556
0.000972842
0.0311114
0.00111379
0.0305983
0.00131723
0.029992
0.00159417
0.0292319
0.00204472
0.0283135
0.00252718
0.0270226
0.0040071
0.00782398
0.0245092
0.00825797
-0.0265328
8.19349e-06
0.016682
-0.0276364
0.0250222
-0.0277021
0.032755
-0.0252471
0.0400099
-0.0243889
0.0463324
-0.0205365
0.0512267
-0.0140614
0.053837
-0.00337507
0.0556589
-0.00277927
0.0577521
-0.00519121
0.0605472
-0.00807841
0.0646229
-0.015062
0.0687949
-0.0153455
0.0718213
-0.010463
0.0715388
0.0040645
0.0684521
0.0169435
0.0623081
0.0317714
0.0571872
0.020462
0.0540552
0.0101994
0.0516022
0.0065771
0.049683
0.00404837
0.0483976
0.00226485
0.0475082
0.00137286
0.0469265
0.000631247
0.0465902
-1.7601e-05
0.0459552
0.00159123
0.0449277
0.00332008
0.0442531
0.00176173
0.0437024
0.00153747
0.0432073
0.00135898
0.042752
0.0012551
0.0423076
0.0012595
0.0418518
0.00133029
0.0413664
0.00145821
0.0408326
0.00164764
0.0402243
0.00192547
0.0395133
0.00230518
0.0386416
0.00291646
0.0375796
0.00358914
0.0361886
0.00539815
0.0102899
0.0337226
0.00971934
-0.0362614
9.31274e-06
0.0194661
-0.0373831
0.028992
-0.037228
0.0378345
-0.0340895
0.0460881
-0.0326425
0.0534015
-0.0278499
0.0593991
-0.020059
0.0632911
-0.00726713
0.0662097
-0.0056979
0.0689996
-0.00798103
0.0723778
-0.0114567
0.0767282
-0.0194123
0.0811153
-0.0197326
0.0845024
-0.0138501
0.084784
0.00378292
0.0818277
0.0198997
0.0754645
0.0381346
0.0696459
0.0262806
0.0663006
0.0135447
0.0640793
0.00879846
0.0623759
0.00575171
0.0612316
0.00340915
0.0604124
0.00219204
0.0598179
0.00122583
0.0594216
0.000378621
0.0587474
0.00226546
0.0576524
0.00441504
0.0568549
0.00255931
0.0562184
0.00217392
0.0556414
0.001936
0.055109
0.00178752
0.0545947
0.00177376
0.0540712
0.00185382
0.0535166
0.00201277
0.0529101
0.00225417
0.0522246
0.00261093
0.051429
0.00310081
0.0504723
0.00387309
0.0493091
0.00475241
0.0478955
0.00681172
0.0126724
0.045513
0.0114546
-0.0477264
1.03677e-05
0.0227503
-0.0486788
0.0336474
-0.0481252
0.0437423
-0.0441844
0.0531356
-0.0420358
0.0615663
-0.0362806
0.0687846
-0.0272773
0.074088
-0.0125706
0.0783943
-0.0100042
0.0821002
-0.0116869
0.0861709
-0.0155274
0.0908583
-0.0240997
0.0954533
-0.0243276
0.0991893
-0.0175862
0.100227
0.0027456
0.0979463
0.0221801
0.0918257
0.0442552
0.0851489
0.0329575
0.0808846
0.017809
0.0783019
0.0113811
0.0765004
0.00755323
0.0754013
0.0045082
0.0747135
0.00287989
0.0742505
0.00168875
0.0739577
0.000671443
0.0734317
0.00279146
0.0724623
0.0053844
0.0716756
0.00334607
0.071053
0.00279648
0.0704806
0.00250843
0.0699417
0.00232641
0.0694185
0.00229688
0.0688832
0.00238911
0.068312
0.00258402
0.0676833
0.00288286
0.0669713
0.00332295
0.0661442
0.00392785
0.065164
0.00485336
0.063975
0.00594139
0.0626439
0.00814278
0.0148491
0.0604673
0.0135215
-0.0612592
1.14002e-05
0.0266463
-0.0618036
0.0391487
-0.0606276
0.050682
-0.0557176
0.0613805
-0.0527344
0.0710698
-0.0459699
0.0796174
-0.0358248
0.0864098
-0.019363
0.0923236
-0.015918
0.0972081
-0.0165714
0.102136
-0.0204551
0.107266
-0.0292294
0.112104
-0.0291664
0.1162
-0.0216817
0.118082
0.000863726
0.116873
0.0233885
0.111638
0.0494909
0.104544
0.0400508
0.0991993
0.0231541
0.0958616
0.0147188
0.0935956
0.00981921
0.0922328
0.00587102
0.0914495
0.00366323
0.0909897
0.00214857
0.0907348
0.000926317
0.0903458
0.00318046
0.08956
0.00617016
0.0888554
0.00405068
0.0883164
0.00333548
0.087831
0.0029938
0.0873665
0.00279094
0.0869109
0.00275252
0.086439
0.00286096
0.0859264
0.00309665
0.0853518
0.00345746
0.0846925
0.00398219
0.0839195
0.00470085
0.0830128
0.00576011
0.0819152
0.00703895
0.0807946
0.00926336
0.016653
0.0789907
0.0159949
-0.0772665
1.2426e-05
0.0312994
-0.0771082
0.0457044
-0.0750326
0.0589191
-0.0689323
0.071126
-0.0649414
0.0822357
-0.0570796
0.0922242
-0.0458132
0.10056
-0.0276988
0.108208
-0.0235661
0.114507
-0.0228699
0.120476
-0.0264249
0.126195
-0.0349483
0.131373
-0.0343439
0.135872
-0.0261814
0.138642
-0.00190605
0.138742
0.0232889
0.134982
0.0532512
0.128218
0.0468138
0.122061
0.0293116
0.117848
0.0189313
0.114933
0.0127343
0.113097
0.00770685
0.112
0.00476022
0.111361
0.00278835
0.110993
0.00129382
0.110601
0.0035727
0.109907
0.00686414
0.109232
0.00472564
0.108726
0.0038412
0.108305
0.00341445
0.107916
0.00318044
0.107542
0.00312629
0.107161
0.00324244
0.106745
0.0035125
0.106272
0.00392997
0.105724
0.00453013
0.105077
0.00534789
0.104332
0.00650516
0.103442
0.00792929
0.10264
0.0100653
0.0179295
0.101364
0.018969
-0.096249
1.34467e-05
0.0368923
-0.0950315
0.0535769
-0.0917171
0.068788
-0.0841434
0.0827598
-0.0789132
0.095486
-0.0698059
0.107042
-0.0573694
0.116973
-0.0376292
0.126392
-0.0329853
0.134271
-0.030749
0.141468
-0.0336226
0.147959
-0.041439
0.153628
-0.0400126
0.158627
-0.0311801
0.162324
-0.0056033
0.16386
0.0217524
0.162027
0.055085
0.156425
0.0524152
0.15004
0.0356969
0.145068
0.023903
0.141472
0.0163302
0.139089
0.01009
0.13756
0.00628929
0.136615
0.00373349
0.136024
0.00188472
0.135513
0.00408425
0.134813
0.00756324
0.134105
0.00543413
0.133553
0.0043931
0.133121
0.00384645
0.132746
0.00355531
0.132404
0.00346818
0.132074
0.00357289
0.131729
0.00385768
0.131346
0.00431247
0.130912
0.00496468
0.130409
0.00585067
0.129857
0.00705738
0.12923
0.00855604
0.128773
0.0105223
0.0186202
0.128082
0.0225597
-0.118823
1.44564e-05
0.0436486
-0.11612
0.0630869
-0.111155
0.0806961
-0.101753
0.0967584
-0.0949755
0.111348
-0.0843955
0.12463
-0.0706518
0.136229
-0.0492277
0.147403
-0.044159
0.156943
-0.0402889
0.165519
-0.0421995
0.172979
-0.0488987
0.179334
-0.0463674
0.184982
-0.0368284
0.189654
-0.0102748
0.192675
0.0187311
0.193027
0.0547325
0.189361
0.056082
0.183589
0.0414687
0.17826
0.0292319
0.174101
0.0204893
0.171197
0.0129937
0.169204
0.00828251
0.167888
0.00504886
0.167014
0.00275954
0.166322
0.00477637
0.165566
0.00831903
0.164807
0.00619238
0.164181
0.00501974
0.163693
0.00433449
0.163289
0.00395876
0.162939
0.00381891
0.16262
0.00389133
0.162311
0.00416647
0.161992
0.00463187
0.161652
0.00530469
0.161285
0.00621766
0.160921
0.00742141
0.160564
0.0089129
0.16042
0.0106667
0.018782
0.160258
0.0269071
-0.145746
1.54468e-05
0.0518372
-0.14105
0.0746194
-0.133938
0.0951309
-0.122264
0.113696
-0.113541
0.130466
-0.101166
0.14569
-0.0858753
0.15908
-0.0626177
0.171993
-0.0570719
0.183212
-0.0515077
0.193262
-0.0522502
0.201872
-0.057508
0.209123
-0.0536182
0.2156
-0.0433058
0.221311
-0.0159856
0.225807
0.0142351
0.228396
0.0521438
0.227226
0.0572512
0.223022
0.0456728
0.218064
0.0341898
0.213694
0.0248601
0.210424
0.0162629
0.20803
0.0106764
0.206347
0.00673252
0.205172
0.0039346
0.204278
0.00567022
0.203445
0.00915183
0.20265
0.00698708
0.20197
0.00570011
0.201432
0.00487235
0.201002
0.00438873
0.200646
0.00417459
0.200344
0.00419343
0.200078
0.00443328
0.19983
0.00487904
0.199598
0.00553699
0.199384
0.00643133
0.199224
0.00758155
0.199147
0.00899007
0.199303
0.0105106
0.018504
0.199581
0.0321789
-0.177941
1.64077e-05
0.0617791
-0.170651
0.0886328
-0.160791
0.112672
-0.146303
0.134259
-0.135127
0.153621
-0.120528
0.171082
-0.103337
0.186464
-0.0779993
0.201159
-0.0717668
0.214068
-0.0644163
0.225643
-0.0638254
0.235546
-0.067411
0.243886
-0.0619584
0.251371
-0.0507905
0.258201
-0.022816
0.264137
0.00829941
0.268839
0.0474418
0.270402
0.0556878
0.268585
0.0474901
0.264949
0.0378255
0.261027
0.0287823
0.257758
0.0195317
0.255176
0.013258
0.253235
0.00867372
0.251813
0.0053566
0.250745
0.00673891
0.249846
0.0100504
0.249044
0.00778872
0.24836
0.00638427
0.247818
0.00541435
0.247402
0.0048051
0.247083
0.00449328
0.246843
0.00443404
0.246666
0.00460954
0.246545
0.00500052
0.246478
0.00560334
0.246478
0.00643135
0.24658
0.00748022
0.246824
0.0087458
0.247316
0.0100185
0.0178266
0.247993
0.038577
-0.216535
1.73282e-05
0.073859
-0.205933
0.105675
-0.192608
0.134014
-0.174642
0.15927
-0.160384
0.181751
-0.143009
0.201857
-0.123443
0.219532
-0.0956746
0.236155
-0.0883896
0.250821
-0.0790826
0.263974
-0.0769776
0.275285
-0.078722
0.284878
-0.0715516
0.293525
-0.0594374
0.301554
-0.0308449
0.308893
0.000960526
0.3155
0.0408348
0.319708
0.0514793
0.320737
0.046461
0.319325
0.0392378
0.316737
0.0313699
0.314089
0.0221803
0.311743
0.0156033
0.309827
0.0105898
0.308339
0.00684447
0.307214
0.00786463
0.306324
0.0109397
0.30558
0.008533
0.30497
0.00699457
0.304504
0.00587995
0.304177
0.005132
0.303971
0.00469954
0.30387
0.00453488
0.303866
0.00461385
0.303955
0.00491165
0.304142
0.00541603
0.304443
0.00613014
0.304891
0.00703289
0.305525
0.00811171
0.306418
0.00912498
0.0167258
0.307519
0.0463463
-0.2629
1.81954e-05
0.088543
-0.248129
0.126411
-0.230476
0.159994
-0.208225
0.189726
-0.190116
0.215996
-0.169279
0.239287
-0.146734
0.259683
-0.116071
0.278514
-0.107221
0.295114
-0.0956827
0.309957
-0.0918204
0.322799
-0.0915634
0.333792
-0.0825451
0.343732
-0.0693778
0.353029
-0.0401418
0.361751
-0.0077614
0.370051
0.0325355
0.376618
0.0449117
0.380535
0.0425443
0.381917
0.0378558
0.381522
0.0317647
0.380273
0.0234296
0.378792
0.017084
0.377386
0.0119961
0.376192
0.00803796
0.375273
0.00878423
0.374582
0.0116302
0.37404
0.00907553
0.373636
0.00739805
0.373377
0.00613955
0.373262
0.00524681
0.373285
0.00467632
0.373439
0.00438099
0.373721
0.00433221
0.374132
0.00449997
0.374683
0.00486519
0.37539
0.00542336
0.37628
0.0061428
0.377386
0.00700552
0.378758
0.0077534
0.0151372
0.380346
0.0557893
-0.318708
1.89947e-05
0.106405
-0.298745
0.151655
-0.275726
0.191644
-0.248214
0.226847
-0.225319
0.257749
-0.200181
0.284924
-0.173909
0.308616
-0.139762
0.33009
-0.128695
0.348942
-0.114534
0.365698
-0.108577
0.38025
-0.106115
0.39281
-0.0951055
0.404179
-0.080746
0.414824
-0.0507867
0.424925
-0.0178632
0.434758
0.0227028
0.443358
0.0363117
0.449913
0.0359892
0.454228
0.0335408
0.456588
0.0294051
0.457457
0.0225604
0.457549
0.0169925
0.457282
0.0122624
0.456914
0.00840635
0.45663
0.00906772
0.456479
0.0117813
0.456409
0.00914563
0.456443
0.00736441
0.456597
0.00598478
0.456886
0.00495799
0.457316
0.00424656
0.457891
0.00380642
0.458615
0.00360783
0.459497
0.00361783
0.460549
0.00381326
0.461787
0.00418526
0.463233
0.00469679
0.464911
0.00532814
0.466851
0.00581306
0.0129717
0.469016
0.0672784
-0.386006
1.97077e-05
0.128152
-0.359618
0.182414
-0.329989
0.230234
-0.296033
0.272139
-0.267225
0.308725
-0.236766
0.340673
-0.205857
0.368405
-0.167494
0.393131
-0.153421
0.414712
-0.136115
0.433748
-0.127613
0.450291
-0.122658
0.464647
-0.109462
0.477618
-0.0937168
0.489729
-0.0628974
0.501247
-0.0293816
0.512538
0.0114121
0.522918
0.025932
0.531772
0.0271348
0.538842
0.0264711
0.544126
0.0241208
0.54757
0.019116
0.549829
0.0147334
0.551334
0.0107582
0.552396
0.0073435
0.553296
0.00816811
0.55416
0.0109173
0.554971
0.00833497
0.555796
0.0065393
0.556681
0.00509996
0.557659
0.00397985
0.558755
0.00315035
0.559988
0.00257371
0.561372
0.002223
0.562924
0.00206609
0.564658
0.00207926
0.566591
0.00225293
0.568738
0.0025489
0.571118
0.00294867
0.573748
0.00318313
0.010111
0.576609
0.0812684
-0.467295
2.03057e-05
0.154649
-0.432998
0.219924
-0.395264
0.277327
-0.353436
0.327455
-0.317353
0.371031
-0.280342
0.408869
-0.243695
0.441589
-0.200215
0.470364
-0.182196
0.49533
-0.161081
0.517173
-0.149456
0.536122
-0.141608
0.552605
-0.125945
0.567435
-0.108547
0.581205
-0.076667
0.59426
-0.0424374
0.607039
-0.00136611
0.619074
0.0138963
0.629955
0.0162539
0.639489
0.0169371
0.64758
0.0160301
0.653741
0.0129553
0.658512
0.00996241
0.662257
0.0070124
0.665285
0.00431629
0.66791
0.00554235
0.670312
0.00851547
0.672494
0.00615349
0.674562
0.00447115
0.676592
0.00306968
0.678642
0.00192971
0.680757
0.00103563
0.682971
0.000359744
0.685312
-0.000118032
0.687803
-0.000425063
0.690464
-0.000581939
0.693313
-0.00059565
0.696364
-0.000502227
0.699629
-0.000316835
0.703121
-0.000307897
0.00639055
0.706841
0.0890413
-0.556355
1.89554e-05
0.169351
-0.513308
0.240685
-0.466597
0.303321
-0.416072
0.357883
-0.371915
0.405165
-0.327624
0.446048
-0.284578
0.481297
-0.235464
0.511976
-0.212875
0.538456
-0.187561
0.561455
-0.172455
0.581348
-0.161501
0.598653
-0.14325
0.614142
-0.124036
0.628432
-0.0909564
0.641909
-0.0559147
0.655027
-0.0144843
0.667498
0.00142533
0.679102
0.00465066
0.689763
0.00627581
0.699416
0.00637717
0.707352
0.00501868
0.713985
0.00332997
0.71957
0.00142722
0.724349
-0.000462758
0.728608
0.00128315
0.732526
0.00459805
0.736108
0.00257122
0.739472
0.00110731
0.742704
-0.000162793
0.745875
-0.00124083
0.749039
-0.0021285
0.752241
-0.00284217
0.755516
-0.00339317
0.758893
-0.00380186
0.762394
-0.00408338
0.766039
-0.00424016
0.769841
-0.00430419
0.77381
-0.00428644
0.777955
-0.00445247
0.00204252
0.782303
0.0956729
-0.652046
1.74467e-05
0.181898
-0.599533
0.25841
-0.54311
0.325524
-0.483186
0.383887
-0.430278
0.434352
-0.378088
0.477859
-0.328085
0.515288
-0.272892
0.547625
-0.245213
0.575424
-0.21536
0.599427
-0.196458
0.62012
-0.182194
0.638099
-0.161228
0.654104
-0.140041
0.668773
-0.105626
0.682527
-0.0696687
0.69583
-0.0277874
0.708511
-0.0112555
0.720474
-0.00731223
0.731741
-0.00499054
0.742306
-0.00418879
0.751378
-0.00405275
0.759295
-0.00458739
0.76624
-0.00551725
0.772393
-0.00661584
0.777996
-0.00432022
0.78321
-0.000616207
0.788037
-0.00225491
0.792584
-0.0034406
0.79694
-0.00451793
0.801173
-0.00547377
0.805341
-0.0062972
0.809493
-0.0069937
0.813665
-0.00756572
0.81789
-0.00802605
0.82219
-0.00838363
0.826585
-0.00863561
0.83109
-0.00880926
0.835715
-0.00891116
0.840465
-0.00920281
-0.00288239
0.84539
0.102943
-0.755005
1.61609e-05
0.195668
-0.692258
0.277895
-0.625337
0.349971
-0.555263
0.412575
-0.492882
0.466626
-0.432138
0.513127
-0.374587
0.553067
-0.312832
0.587395
-0.279541
0.616815
-0.244779
0.642102
-0.221745
0.663836
-0.203929
0.682686
-0.180078
0.699382
-0.156737
0.714594
-0.120838
0.728772
-0.0838475
0.742397
-0.0414118
0.755374
-0.0242322
0.76769
-0.019629
0.77944
-0.0167406
0.79068
-0.0154282
0.800582
-0.0139551
0.80946
-0.0134649
0.817452
-0.01351
0.824703
-0.0138663
0.831416
-0.0110339
0.837735
-0.00693454
0.843651
-0.00817111
0.849263
-0.0090528
0.854649
-0.00990425
0.859876
-0.0107005
0.864999
-0.0114199
0.870063
-0.0120584
0.875108
-0.0126102
0.880163
-0.0130808
0.885252
-0.013473
0.890395
-0.0137789
0.895607
-0.0140208
0.900897
-0.0142012
0.906271
-0.0145768
-0.00840568
0.911794
0.110892
-0.865912
1.50403e-05
0.210736
-0.792102
0.299238
-0.713839
0.376778
-0.632802
0.444073
-0.560178
0.502111
-0.490177
0.55197
-0.424446
0.594741
-0.355603
0.631367
-0.316168
0.662681
-0.276093
0.689502
-0.248566
0.712494
-0.22692
0.732394
-0.199978
0.749942
-0.174285
0.765846
-0.136742
0.78059
-0.0985912
0.794672
-0.0554942
0.80805
-0.0376102
0.820771
-0.0323503
0.832985
-0.0289537
0.844796
-0.02724
0.855369
-0.024528
0.865011
-0.0231063
0.873842
-0.0223417
0.881985
-0.0220092
0.88962
-0.0186687
0.896873
-0.0141873
0.90373
-0.015028
0.910278
-0.0156007
0.916587
-0.016213
0.922716
-0.0168301
0.928718
-0.0174215
0.934634
-0.0179747
0.940501
-0.0184767
0.946346
-0.0189264
0.952194
-0.019321
0.958063
-0.0196477
0.963967
-0.0199245
0.969915
-0.02015
0.975914
-0.0205758
-0.0145332
0.982042
0.119569
-0.985494
1.40478e-05
0.227195
-0.899729
0.322569
-0.809213
0.406102
-0.716335
0.478557
-0.632634
0.540999
-0.552618
0.594584
-0.478031
0.64051
-0.401528
0.679732
-0.35539
0.713203
-0.309564
0.741793
-0.277156
0.766246
-0.251373
0.78737
-0.221102
0.805923
-0.192838
0.822661
-0.15348
0.838101
-0.114032
0.85277
-0.0701626
0.866658
-0.0514987
0.879859
-0.0455507
0.892564
-0.0416589
0.904923
-0.0395992
0.916093
-0.0356984
0.92639
-0.033403
0.93593
-0.0318815
0.944824
-0.030903
0.953238
-0.0270829
0.961289
-0.0222381
0.968958
-0.022697
0.976323
-0.0229661
0.983447
-0.0233372
0.990384
-0.0237672
0.997181
-0.0242179
1.00388
-0.0246694
1.0105
-0.0251021
1.01708
-0.0255091
1.02365
-0.0258826
1.0302
-0.0262055
1.03677
-0.0264917
1.04336
-0.0267366
1.04997
-0.027186
-0.0212559
1.05669
0.129034
-1.11454
1.31538e-05
0.245158
-1.01585
0.348043
-0.912097
0.438134
-0.806427
0.51625
-0.710749
0.583533
-0.619902
0.64123
-0.535727
0.690645
-0.450943
0.732763
-0.397508
0.768654
-0.345455
0.799245
-0.307746
0.825357
-0.277485
0.847873
-0.243618
0.867581
-0.212546
0.885287
-0.171186
0.901548
-0.130293
0.916921
-0.0855358
0.931425
-0.0660021
0.945185
-0.059311
0.958433
-0.0549063
0.971353
-0.0525195
0.983098
-0.0474434
0.993996
-0.0443016
1.00417
-0.0420531
1.01372
-0.0404567
1.02282
-0.036178
1.03156
-0.0309859
1.03994
-0.0310769
1.04803
-0.0310504
1.05587
-0.0311831
1.06353
-0.0314242
1.07104
-0.0317282
1.07844
-0.0320684
1.08576
-0.0324195
1.09302
-0.0327694
1.10024
-0.0331055
1.10744
-0.0334068
1.11463
-0.0336838
1.12183
-0.0339286
1.12902
-0.0343817
-0.0285525
1.13632
0.139356
-1.25391
1.23374e-05
0.264753
-1.14125
0.375839
-1.02318
0.473101
-0.903688
0.557411
-0.79506
0.630005
-0.692496
0.692221
-0.597943
0.745478
-0.504201
0.790805
-0.442834
0.829386
-0.384037
0.862211
-0.340572
0.890184
-0.305458
0.914262
-0.267696
0.935272
-0.233557
0.954079
-0.189992
0.971281
-0.147495
0.987471
-0.101726
1.00269
-0.0812191
1.01709
-0.0737113
1.03094
-0.0687536
1.04445
-0.0660316
1.05677
-0.0597659
1.06825
-0.0557805
1.07901
-0.0528146
1.08917
-0.0506126
1.09888
-0.0458869
1.10825
-0.0403576
1.11726
-0.0400899
1.12598
-0.0397741
1.13447
-0.0396717
1.14277
-0.0397239
1.15092
-0.0398783
1.15896
-0.0401018
1.1669
-0.0403637
1.17478
-0.0406467
1.18261
-0.0409341
1.1904
-0.0412015
1.19817
-0.0414558
1.20593
-0.0416865
1.21368
-0.0421284
-0.0363922
1.22152
0.150613
-1.40453
1.15833e-05
0.286125
-1.27676
0.406164
-1.14322
0.511257
-1.00878
0.602343
-0.886146
0.680751
-0.770904
0.747924
-0.665116
0.805402
-0.561679
0.854267
-0.491698
0.895821
-0.425591
0.931125
-0.375877
0.961165
-0.335498
0.986979
-0.29351
1.00944
-0.25602
1.02948
-0.21003
1.04774
-0.165755
1.06485
-0.118839
1.08088
-0.0972431
1.09599
-0.0888281
1.1105
-0.0832589
1.12464
-0.0801725
1.13756
-0.0726813
1.14961
-0.0678352
1.16094
-0.0641442
1.17166
-0.0613346
1.18194
-0.0561632
1.19188
-0.0502997
1.20147
-0.0496763
1.21077
-0.0490734
1.21983
-0.0487369
1.22871
-0.0485997
1.23743
-0.0486023
1.24603
-0.0487054
1.25454
-0.0488726
1.26298
-0.049082
1.27136
-0.0493128
1.27969
-0.0495373
1.288
-0.0497592
1.29628
-0.0499655
1.30453
-0.0503851
-0.0447376
1.31288
0.16289
-1.56743
1.08796e-05
0.309438
-1.42331
0.439249
-1.27303
0.552895
-1.12243
0.651385
-0.984636
0.736156
-0.855675
0.80876
-0.737719
0.870867
-0.623787
0.923621
-0.544453
0.968449
-0.470419
1.00649
-0.413917
1.03881
-0.367822
1.06655
-0.321244
1.09062
-0.280091
1.11202
-0.231434
1.13146
-0.185188
1.1496
-0.13698
1.16652
-0.114163
1.18242
-0.104734
1.19764
-0.0984775
1.21245
-0.0949794
1.22598
-0.0862089
1.23861
-0.0804685
1.2505
-0.0760297
1.26176
-0.0725978
1.27257
-0.0669723
1.28304
-0.0607704
1.29315
-0.0597873
1.30297
-0.0588947
1.31256
-0.0583217
1.32195
-0.0579924
1.33119
-0.0578401
1.3403
-0.0578188
1.34931
-0.0578867
1.35825
-0.0580171
1.36712
-0.0581852
1.37594
-0.0583601
1.38473
-0.0585423
1.39348
-0.0587166
1.4022
-0.0591056
-0.0535449
1.41101
0.176284
-1.74373
1.0222e-05
0.334876
-1.5819
0.475354
-1.41351
0.59834
-1.24541
0.704923
-1.09122
0.796652
-0.947404
0.875203
-0.81627
0.942382
-0.690966
0.999407
-0.601478
1.04783
-0.518845
1.08889
-0.454969
1.12373
-0.402663
1.15357
-0.351089
1.17941
-0.305933
1.20232
-0.254343
1.22305
-0.205914
1.24232
-0.156251
1.26022
-0.132064
1.27698
-0.121497
1.29297
-0.114461
1.30847
-0.110486
1.32263
-0.100367
1.33585
-0.0936842
1.34828
-0.0884621
1.36006
-0.0843816
1.37137
-0.0782849
1.38234
-0.0717331
1.39293
-0.0703796
1.40322
-0.0691892
1.41328
-0.0683731
1.42313
-0.0678463
1.43282
-0.067534
1.44239
-0.0673833
1.45185
-0.0673471
1.46122
-0.0673933
1.47053
-0.0674933
1.47979
-0.067613
1.48899
-0.0677498
1.49816
-0.067886
1.50729
-0.0682378
-0.0627643
1.51651
0.190905
-1.93464
9.59769e-06
0.362644
-1.75364
0.514769
-1.56564
0.647958
-1.3786
0.763388
-1.20665
0.862729
-1.04674
0.947789
-0.90133
1.02052
-0.7637
1.08223
-0.663189
1.13461
-0.571222
1.17897
-0.49933
1.21658
-0.440268
1.24874
-0.383254
1.27652
-0.333718
1.30108
-0.2789
1.32322
-0.228052
1.34372
-0.176753
1.36269
-0.15103
1.38037
-0.139181
1.39717
-0.131254
1.4134
-0.12672
1.4282
-0.11517
1.442
-0.107483
1.45497
-0.10143
1.46725
-0.0966646
1.47904
-0.0900709
1.49046
-0.0831511
1.50149
-0.0814096
1.5122
-0.079908
1.52267
-0.0788381
1.53293
-0.0781048
1.54302
-0.077625
1.55297
-0.0773385
1.56282
-0.0771919
1.57257
-0.0771485
1.58226
-0.077175
1.59188
-0.0772343
1.60145
-0.0773204
1.61098
-0.0774135
1.62046
-0.0777227
-0.0723384
1.63003
0.206873
-2.14153
9.0118e-06
0.39297
-1.93974
0.557821
-1.73049
0.702161
-1.52294
0.827263
-1.33175
0.934932
-1.15441
1.02712
-0.993517
1.10594
-0.842519
1.17279
-0.730036
1.2295
-0.627931
1.27749
-0.547321
1.31813
-0.480906
1.35283
-0.41796
1.38274
-0.363629
1.4091
-0.305257
1.43278
-0.251729
1.45461
-0.19859
1.47472
-0.17114
1.49339
-0.157846
1.51103
-0.148896
1.52801
-0.143702
1.54347
-0.130625
1.55785
-0.12186
1.57133
-0.114917
1.58409
-0.10942
1.59631
-0.102295
1.60814
-0.0949829
1.61956
-0.0928295
1.63065
-0.0909977
1.64147
-0.0896588
1.65208
-0.0887067
1.6625
-0.0880489
1.67278
-0.0876178
1.68294
-0.0873536
1.69301
-0.0872138
1.70299
-0.087161
1.71291
-0.0871545
1.72278
-0.087185
1.73259
-0.0872301
1.74236
-0.0874919
-0.0822001
1.75223
0.224323
-2.36586
8.44806e-06
0.426113
-2.14153
0.604874
-1.90925
0.761407
-1.67947
0.897091
-1.46743
1.01388
-1.2712
1.11387
-1.09351
1.19936
-0.928006
1.27184
-0.802516
1.3333
-0.689393
1.38527
-0.599294
1.42923
-0.52487
1.46672
-0.455449
1.49896
-0.395865
1.52728
-0.333577
1.55262
-0.277073
1.5759
-0.221866
1.59724
-0.192476
1.61694
-0.177547
1.63546
-0.167421
1.6532
-0.161443
1.66931
-0.14673
1.68425
-0.136801
1.69823
-0.128898
1.71142
-0.122612
1.72404
-0.114915
1.73624
-0.107178
1.74799
-0.104582
1.75939
-0.102396
1.7705
-0.100769
1.78137
-0.0995813
1.79205
-0.0987324
1.80258
-0.0981456
1.81298
-0.0977544
1.82328
-0.0975104
1.83349
-0.0973714
1.84363
-0.0972931
1.85371
-0.0972627
1.86373
-0.0972552
1.8737
-0.0974649
-0.0922701
1.88377
0.243407
-2.60927
7.91725e-06
0.462359
-2.36048
0.656335
-2.10323
0.826211
-1.84935
0.973478
-1.6147
1.10025
-1.39797
1.20879
-1.20206
1.30159
-1.0208
1.38024
-0.881174
1.44692
-0.756067
1.50326
-0.655637
1.55087
-0.572479
1.5914
-0.495984
1.62618
-0.430638
1.65663
-0.36403
1.68378
-0.304223
1.7086
-0.24669
1.73124
-0.215114
1.75203
-0.198334
1.77146
-0.186853
1.78996
-0.179943
1.8067
-0.163472
1.82218
-0.152279
1.83662
-0.143334
1.8502
-0.136193
1.86316
-0.127873
1.87565
-0.119674
1.88767
-0.116599
1.8993
-0.114029
1.91062
-0.112088
1.92169
-0.110645
1.93254
-0.109589
1.94323
-0.108832
1.95378
-0.108303
1.96421
-0.107945
1.97455
-0.107712
1.98481
-0.107555
1.99501
-0.107458
2.00515
-0.107393
2.01523
-0.107546
-0.102453
2.02541
0.264294
-2.87357
7.39853e-06
0.502029
-2.59822
0.712661
-2.31386
0.897146
-2.03383
1.0571
-1.77466
1.19481
-1.53568
1.31274
-1.31998
1.41355
-1.12161
1.49898
-0.96661
1.57138
-0.82846
1.63251
-0.716771
1.68412
-0.624083
1.72798
-0.539849
1.76552
-0.468179
1.7983
-0.396803
1.8274
-0.333323
1.85388
-0.27317
1.87789
-0.239132
1.89981
-0.22025
1.92016
-0.207206
1.93941
-0.199191
1.95676
-0.180826
1.97274
-0.168255
1.98758
-0.158174
2.00149
-0.150099
2.01471
-0.141099
2.02743
-0.132392
2.03962
-0.128794
2.0514
-0.125803
2.06283
-0.123519
2.07398
-0.121797
2.08491
-0.120513
2.09564
-0.119571
2.10623
-0.118889
2.11669
-0.118406
2.12705
-0.118069
2.13732
-0.117826
2.14752
-0.117656
2.15765
-0.117528
2.16773
-0.117619
-0.112635
2.17791
0.287173
-3.16075
6.90447e-06
0.545483
-2.85653
0.774363
-2.54274
0.97486
-2.23433
1.14873
-1.94853
1.29844
-1.68539
1.42666
-1.4482
1.53626
-1.23122
1.62914
-1.05949
1.70782
-0.907134
1.77421
-0.783165
1.8302
-0.680068
1.87771
-0.58736
1.91827
-0.508741
1.95356
-0.432092
1.98476
-0.364524
2.01301
-0.301419
2.03848
-0.264602
2.06156
-0.243334
2.08284
-0.228483
2.10281
-0.219157
2.12073
-0.198748
2.13714
-0.18467
2.15232
-0.173346
2.16647
-0.164249
2.17987
-0.1545
2.19271
-0.145233
2.20497
-0.141059
2.21678
-0.137606
2.2282
-0.134945
2.23932
-0.132914
2.25018
-0.131379
2.26084
-0.130231
2.27134
-0.129381
2.28169
-0.128759
2.29193
-0.128308
2.30207
-0.127969
2.31213
-0.127718
2.32213
-0.127521
2.33205
-0.127544
-0.122676
2.34209
0.312258
-3.47302
6.41824e-06
0.593126
-3.13739
0.842016
-2.79163
1.06007
-2.45239
1.24921
-2.13766
1.4121
-1.84828
1.55161
-1.58772
1.67089
-1.35049
1.77194
-1.16055
1.85752
-0.992706
1.92968
-0.855335
1.99047
-0.740858
2.04197
-0.638861
2.08583
-0.552597
2.12385
-0.470113
2.15732
-0.397989
2.18745
-0.331554
2.21445
-0.291597
2.23873
-0.267615
2.26092
-0.250676
2.28156
-0.239795
2.29999
-0.217177
2.31676
-0.201446
2.33217
-0.188757
2.34646
-0.178537
2.35992
-0.16796
2.37276
-0.158071
2.38496
-0.153263
2.39666
-0.149299
2.40793
-0.146219
2.41886
-0.143847
2.42952
-0.142032
2.43994
-0.140655
2.45018
-0.139618
2.46026
-0.138842
2.47022
-0.138263
2.48006
-0.137818
2.48982
-0.137478
2.49951
-0.137204
2.50912
-0.137154
-0.132409
2.51885
0.339787
-3.81281
5.95344e-06
0.64541
-3.44302
0.916263
-3.06248
1.1536
-2.68973
1.35951
-2.34356
1.53687
-2.02564
1.68881
-1.73966
1.81871
-1.48039
1.92876
-1.2706
2.02192
-1.08586
2.10043
-0.93385
2.16649
-0.80692
2.22236
-0.694729
2.26981
-0.600046
2.3108
-0.511098
2.3467
-0.43389
2.37884
-0.363693
2.40742
-0.320184
2.43292
-0.293112
2.456
-0.273758
2.47724
-0.261036
2.49609
-0.236027
2.51313
-0.218478
2.52866
-0.204287
2.54295
-0.192829
2.55632
-0.181335
2.56901
-0.170753
2.58099
-0.165242
2.5924
-0.160711
2.60334
-0.157166
2.61391
-0.154412
2.62416
-0.152285
2.63416
-0.150653
2.64395
-0.149405
2.65356
-0.148457
2.66304
-0.147735
2.67239
-0.147172
2.68164
-0.146733
2.69082
-0.146375
2.69991
-0.146245
-0.141632
2.70913
0.370028
-4.18284
5.49256e-06
0.702845
-3.77583
0.997828
-3.35746
1.25636
-2.94826
1.4807
-2.5679
1.67398
-2.21893
1.8396
-1.90527
1.98119
-1.62198
2.10114
-1.39055
2.20264
-1.18737
2.28814
-1.01935
2.35999
-0.878774
2.42064
-0.755383
2.47202
-0.651418
2.51622
-0.555297
2.55473
-0.472408
2.589
-0.397958
2.61924
-0.350426
2.64596
-0.319831
2.66989
-0.297683
2.69164
-0.282787
2.71079
-0.255185
2.72795
-0.235635
2.74345
-0.219786
2.75758
-0.206958
2.77069
-0.194446
2.78303
-0.183089
2.79458
-0.176798
2.8055
-0.171633
2.81591
-0.167569
2.82588
-0.164389
2.83551
-0.161912
2.84485
-0.159993
2.85395
-0.15851
2.86286
-0.157367
2.87161
-0.156485
2.88023
-0.15579
2.88874
-0.15524
2.89715
-0.154789
2.90548
-0.154572
-0.150099
2.91395
0.403284
-4.58613
5.05368e-06
0.766004
-4.13855
1.08753
-3.67899
1.36937
-3.23011
1.614
-2.81253
1.82482
-2.42975
2.00549
-2.08594
2.15996
-1.77645
2.29082
-1.5214
2.40152
-1.29807
2.4947
-1.11252
2.57292
-0.956993
2.63882
-0.821284
2.69447
-0.707072
2.74215
-0.602982
2.78348
-0.513737
2.82
-0.434474
2.85195
-0.38238
2.87989
-0.347765
2.90459
-0.322383
2.92672
-0.304921
2.94604
-0.274505
2.96315
-0.252746
2.97843
-0.235064
2.99219
-0.22072
3.00482
-0.207072
3.01658