/*--------------------------------*- C++ -*----------------------------------*\
  =========                 |
  \\      /  F ield         | OpenFOAM: The Open Source CFD Toolbox
   \\    /   O peration     | Website:  https://openfoam.org
    \\  /    A nd           | Version:  11
     \\/     M anipulation  |
\*---------------------------------------------------------------------------*/
FoamFile
{
    format      ascii;
    class       volVectorField;
    location    "150";
    object      U;
}
// * * * * * * * * * * * * * * * * * * * * * * * * * * * * * * * * * * * * * //

dimensions      [0 1 -1 0 0 0 0];

internalField   nonuniform List<vector> 
11040
(
(1.62191 2.08998 7.55064e-18)
(2.19227 6.41337 -1.65456e-17)
(3.78811 10.8802 -1.80005e-17)
(6.36212 14.74 2.2958e-17)
(9.63203 17.9363 -1.18011e-17)
(13.6799 20.2063 4.31031e-18)
(18.1193 21.1098 0)
(21.2687 19.2188 -6.99857e-18)
(22.561 16.5623 0)
(23.4518 15.0958 -1.51209e-17)
(24.6117 14.8359 0)
(26.6975 15.8892 0)
(30.2486 17.0574 3.42941e-17)
(34.9075 16.8729 0)
(37.9039 13.1941 0)
(36.6892 6.79267 0)
(28.8943 -0.667951 0)
(21.4116 -4.465 5.94536e-17)
(18.865 -4.84076 4.65647e-17)
(18.9869 -4.24512 -3.69921e-17)
(19.3694 -3.85328 3.11929e-17)
(19.3879 -3.65676 -8.9873e-19)
(19.2326 -3.53214 -2.38522e-17)
(19.0676 -3.43796 2.65391e-19)
(19.0323 -3.36901 0)
(18.8806 -3.46271 0)
(18.0629 -3.64924 0)
(17.2802 -3.64644 0)
(16.7879 -3.54953 2.06564e-17)
(16.4302 -3.45288 0)
(16.0695 -3.36358 0)
(15.6865 -3.27443 5.25082e-20)
(15.291 -3.18397 1.39079e-20)
(14.8796 -3.09176 -1.41486e-20)
(14.4398 -2.99533 1.05106e-18)
(13.9616 -2.89188 -3.15002e-18)
(13.4166 -2.77559 -5.28696e-18)
(12.809 -2.64477 -6.16875e-20)
(11.9797 -2.47324 3.69625e-20)
(11.2499 -2.255 0)
(8.54047 -2.0327 1.92101e-17)
(2.78991 1.98251 -1.16084e-18)
(3.50723 5.94225 -6.78119e-19)
(5.26118 9.85073 -1.13098e-17)
(8.01493 13.1764 -4.59293e-18)
(11.3956 15.8447 0)
(15.5953 17.5188 1.0937e-18)
(20.0834 17.7233 4.37615e-19)
(24.0469 16.2443 2.27575e-18)
(25.7497 14.7641 -9.79844e-18)
(26.3205 14.3249 -9.90316e-20)
(27.0817 14.5773 -2.33848e-19)
(28.7032 15.6337 7.92658e-19)
(32.0319 15.973 0)
(36.5479 14.2205 0)
(40.7822 9.26473 0)
(43.1294 3.60245 9.1994e-18)
(39.9613 -2.57844 1.83109e-18)
(33.2589 -4.69758 -3.19484e-17)
(27.9728 -4.33694 -2.0861e-17)
(25.2341 -3.96954 -4.73552e-19)
(23.8962 -3.86953 -1.73264e-17)
(23.0553 -3.78836 1.56465e-17)
(22.4528 -3.70328 -4.72158e-19)
(22.0081 -3.6447 -9.01124e-20)
(21.7449 -3.62449 -1.16687e-17)
(21.5019 -3.818 3.26095e-19)
(20.9211 -4.08113 -1.01882e-17)
(20.116 -3.96772 -1.09816e-19)
(19.4888 -3.82324 -6.18983e-18)
(18.9902 -3.7263 0)
(18.5291 -3.63993 0)
(18.0836 -3.55151 -5.85059e-18)
(17.6505 -3.46229 3.67925e-20)
(17.2195 -3.37154 6.0349e-19)
(16.7763 -3.27567 -5.52147e-20)
(16.3123 -3.17179 0)
(15.8029 -3.05475 3.22348e-18)
(15.2654 -2.92214 -1.53446e-20)
(14.5412 -2.7473 -6.15974e-18)
(14.0315 -2.52778 0)
(12.1261 -2.2868 -1.97067e-17)
(4.4324 1.80917 0)
(5.14864 5.41228 4.83033e-18)
(6.71613 8.92018 3.85456e-18)
(9.05434 11.9924 1.01032e-17)
(11.967 14.4897 -5.62532e-19)
(15.5031 16.2058 4.44878e-18)
(19.3037 16.8299 -5.2777e-19)
(22.6224 16.1281 9.25104e-19)
(24.5742 15.1747 1.71612e-18)
(25.6826 14.7784 -7.68635e-18)
(26.8637 14.8021 0)
(28.7164 15.3569 -8.61999e-19)
(31.8327 15.3662 1.61952e-17)
(35.8949 13.8279 -2.12708e-17)
(39.4511 9.55313 0)
(41.4924 4.2783 -7.31265e-18)
(40.7547 -1.85111 1.3805e-18)
(36.8834 -4.45746 2.04557e-17)
(32.6909 -4.68171 -1.74702e-17)
(29.7055 -4.53931 1.42365e-17)
(27.7446 -4.42539 1.20075e-17)
(26.355 -4.28281 -1.08453e-17)
(25.3499 -4.14954 0)
(24.6126 -4.06012 9.47224e-18)
(24.121 -4.01787 8.936e-18)
(23.6752 -4.16523 -5.06194e-19)
(22.9511 -4.37796 7.53864e-18)
(22.1482 -4.28915 -1.64802e-19)
(21.4897 -4.16577 4.95451e-18)
(20.9469 -4.07272 -3.92816e-18)
(20.4414 -3.97972 3.07962e-18)
(19.9504 -3.88101 2.1651e-18)
(19.4727 -3.78059 -1.35521e-18)
(19.0007 -3.67795 -4.29863e-19)
(18.5211 -3.56947 -4.45528e-19)
(18.0248 -3.4516 1.33123e-18)
(17.4883 -3.31943 -1.41917e-20)
(16.9259 -3.1651 0)
(16.2016 -2.97484 8.46065e-20)
(15.6373 -2.69716 -3.23768e-20)
(14.043 -2.41873 6.8471e-18)
(6.22627 1.63218 0)
(6.8922 4.89113 -1.22602e-18)
(8.26787 8.02581 -2.94312e-18)
(10.2754 10.8074 -7.92641e-18)
(12.8119 13.0863 2.21096e-18)
(15.8513 14.729 -5.70477e-18)
(19.136 15.5149 -2.05262e-18)
(22.0889 15.2866 1.24542e-18)
(24.1922 14.5822 4.9041e-18)
(25.5858 14.1757 1.0218e-17)
(26.9112 14.1639 -1.63479e-18)
(28.7603 14.5381 -3.88891e-19)
(31.5571 14.4617 2.63923e-19)
(35.1223 13.1078 1.89384e-17)
(38.3699 9.5252 -2.30009e-18)
(40.1037 4.88453 0)
(39.6641 -0.70633 -2.13786e-18)
(37.0498 -3.81196 2.47539e-18)
(33.9956 -4.51332 2.84038e-17)
(31.6792 -4.54932 -6.78792e-19)
(29.978 -4.52541 1.05216e-17)
(28.6013 -4.44644 6.37838e-19)
(27.4947 -4.345 0)
(26.6203 -4.26909 0)
(25.9793 -4.22851 -7.4416e-18)
(25.4156 -4.3496 4.21763e-19)
(24.6409 -4.55078 -5.74682e-18)
(23.8138 -4.50052 0)
(23.1187 -4.38519 -3.67363e-18)
(22.5419 -4.28813 2.90127e-18)
(22.0093 -4.19241 -4.86491e-18)
(21.4941 -4.09066 -1.70807e-18)
(20.9938 -3.98573 1.0513e-18)
(20.5018 -3.87726 0)
(20.0058 -3.76175 0)
(19.4972 -3.63499 -4.49631e-20)
(18.9543 -3.4923 0)
(18.3897 -3.32182 0)
(17.6861 -3.11812 3.43819e-18)
(17.1145 -2.79959 -4.87941e-20)
(15.7182 -2.49145 1.81616e-20)
(8.07709 1.45698 -2.65957e-19)
(8.68712 4.37485 0)
(9.88381 7.1464 3.10231e-18)
(11.5888 9.62789 -1.0894e-18)
(13.7488 11.6926 4.54938e-18)
(16.3156 13.2572 -5.53199e-18)
(19.1018 14.1658 2.47812e-18)
(21.6974 14.3325 -1.63577e-19)
(23.8216 13.9836 0)
(25.4023 13.6998 -4.97298e-19)
(26.8375 13.6581 5.93523e-18)
(28.6678 13.8171 4.58903e-18)
(31.1873 13.5838 -8.93906e-18)
(34.2881 12.3341 0)
(37.2285 9.31973 -1.43056e-17)
(38.9947 5.24112 0)
(38.7431 0.238078 7.00347e-18)
(36.6254 -3.02622 -2.21014e-19)
(34.0379 -4.05764 -1.01405e-18)
(32.0934 -4.26232 2.55794e-18)
(30.7315 -4.36097 -9.87524e-18)
(29.626 -4.38635 -8.98057e-18)
(28.6858 -4.35297 9.65659e-19)
(27.8896 -4.32042 0)
(27.2541 -4.30763 6.26747e-18)
(26.6845 -4.4202 -6.69436e-19)
(25.9535 -4.61621 5.08711e-18)
(25.1618 -4.60733 -2.22059e-19)
(24.468 -4.50976 4.06429e-19)
(23.8815 -4.41869 -2.66661e-18)
(23.3422 -4.32871 1.77008e-18)
(22.8227 -4.23018 1.60381e-18)
(22.3189 -4.12532 -1.77313e-20)
(21.8248 -4.0147 -2.27388e-20)
(21.3293 -3.89523 2.675e-21)
(20.8244 -3.7621 -1.69513e-20)
(20.2912 -3.61084 -5.92156e-20)
(19.7412 -3.42653 2.61881e-20)
(19.076 -3.20925 -2.59241e-18)
(18.5278 -2.86178 0)
(17.3383 -2.52593 3.72221e-18)
(9.94134 1.28532 9.85372e-19)
(10.4933 3.8695 -6.97076e-19)
(11.5211 6.29417 2.12103e-18)
(12.9509 8.47866 -3.73669e-18)
(14.7566 10.3285 -2.49657e-18)
(16.8922 11.7963 9.05589e-18)
(19.2231 12.7751 2.02895e-18)
(21.462 13.2299 4.92969e-19)
(23.5056 13.2138 0)
(25.207 13.0738 -4.89923e-18)
(26.739 13.0096 -4.75692e-18)
(28.5355 12.9985 -2.48182e-18)
(30.7919 12.646 2.82454e-18)
(33.4561 11.5062 1.84605e-18)
(36.0506 9.02975 1.21118e-17)
(37.8453 5.59167 -2.52407e-18)
(37.9765 1.20014 -3.23159e-18)
(36.341 -2.10801 -2.21308e-17)
(34.0168 -3.4942 -9.75465e-18)
(32.1376 -3.90492 1.90323e-18)
(30.8592 -4.10477 4.48546e-18)
(29.895 -4.21024 7.61652e-18)
(29.0995 -4.237 -6.10917e-18)
(28.4238 -4.2472 0)
(27.8662 -4.26693 0)
(27.3662 -4.37726 0)
(26.7514 -4.56578 3.96786e-18)
(26.0607 -4.59938 0)
(25.4238 -4.53316 0)
(24.8709 -4.4577 2.19748e-18)
(24.3605 -4.37973 0)
(23.8672 -4.29019 -1.29197e-18)
(23.3868 -4.19059 8.23887e-19)
(22.9148 -4.08239 0)
(22.4422 -3.96307 0)
(21.9624 -3.82749 -6.34513e-19)
(21.4594 -3.67128 2.57433e-20)
(20.9446 -3.47788 1.55033e-18)
(20.3395 -3.25049 2.08876e-18)
(19.836 -2.88958 -2.57675e-18)
(18.8691 -2.53889 -3.00841e-18)
(11.7817 1.11975 0)
(12.2746 3.38404 0)
(13.1464 5.48283 1.62762e-18)
(14.3311 7.3816 1.26285e-18)
(15.8161 9.01837 0)
(17.5665 10.3716 -3.35063e-18)
(19.4896 11.3714 -4.85741e-19)
(21.3876 12.0067 -1.76817e-18)
(23.2685 12.2593 6.52872e-19)
(24.9955 12.2813 -2.56554e-20)
(26.5802 12.2351 0)
(28.3222 12.1189 2.08984e-18)
(30.3381 11.6917 -1.43946e-17)
(32.6136 10.6606 6.2709e-18)
(34.8704 8.65366 4.05157e-18)
(36.6159 5.8447 8.7393e-18)
(37.1402 2.12388 -6.45265e-18)
(36.082 -1.09768 6.69254e-18)
(34.112 -2.81275 -8.09799e-18)
(32.2815 -3.47587 0)
(30.9679 -3.79165 -6.06982e-18)
(30.0106 -3.97498 -5.65072e-18)
(29.2516 -4.06003 1.02042e-17)
(28.6203 -4.10824 0)
(28.099 -4.15513 4.20598e-18)
(27.6414 -4.26111 3.75228e-18)
(27.1219 -4.43205 3.58765e-19)
(26.5347 -4.49702 -7.08739e-20)
(25.9727 -4.46427 -3.27779e-19)
(25.4747 -4.40726 0)
(25.0143 -4.34318 0)
(24.5685 -4.26572 1.07947e-18)
(24.132 -4.17497 1.39793e-20)
(23.7022 -4.07252 3.86044e-19)
(23.2721 -3.95653 0)
(22.8367 -3.82187 -4.00026e-19)
(22.3836 -3.66422 -3.17303e-20)
(21.9235 -3.46695 -1.22447e-18)
(21.3994 -3.23422 1.53019e-18)
(20.9587 -2.87659 2.145e-18)
(20.2194 -2.52357 0)
(13.5611 0.963024 0)
(13.9957 2.92714 -1.46756e-18)
(14.7274 4.72508 2.5039e-18)
(15.699 6.35569 -6.98352e-18)
(16.9042 7.78455 3.55377e-18)
(18.3204 9.00791 2.77106e-18)
(19.887 9.98299 0)
(21.4707 10.7068 1.19673e-18)
(23.1353 11.1463 0)
(24.793 11.322 3.95999e-19)
(26.3684 11.3261 -1.11981e-18)
(28.0313 11.1642 1.05688e-18)
(29.8283 10.7101 3.82988e-18)
(31.7671 9.79365 1.69784e-18)
(33.7082 8.18597 -6.39182e-19)
(35.3387 5.94519 -9.58774e-18)
(36.1532 2.91119 4.27791e-19)
(35.6777 -0.062819 0)
(34.1831 -2.00324 3.66787e-18)
(32.5134 -2.9409 6.25675e-19)
(31.1855 -3.40781 5.18594e-18)
(30.2015 -3.68384 5.72545e-18)
(29.4314 -3.83717 1.17512e-18)
(28.794 -3.92934 0)
(28.2653 -4.00358 -3.48174e-18)
(27.8059 -4.10779 -3.11486e-18)
(27.3255 -4.25705 -2.74574e-18)
(26.8004 -4.33889 0)
(26.2884 -4.33463 1.99609e-18)
(25.8276 -4.29489 0)
(25.4044 -4.24261 0)
(24.9985 -4.17575 0)
(24.6029 -4.0933 -6.10084e-19)
(24.2149 -3.99645 -6.37156e-19)
(23.8292 -3.88406 -9.12183e-21)
(23.4417 -3.75137 6.10113e-19)
(23.0437 -3.59411 0)
(22.6442 -3.39717 -8.46528e-19)
(22.2076 -3.16367 -2.49611e-18)
(21.8362 -2.82382 -1.45257e-18)
(21.3039 -2.47761 -2.49774e-20)
(15.2471 0.817603 0)
(15.626 2.50569 1.24296e-18)
(16.2349 4.03067 -2.80818e-21)
(17.0255 5.41509 3.72633e-19)
(17.9941 6.64532 -3.03922e-18)
(19.1283 7.72873 -2.37205e-18)
(20.3905 8.64147 1.66656e-18)
(21.6927 9.38155 -1.01099e-18)
(23.1177 9.9238 -6.19396e-20)
(24.6298 10.2195 6.93158e-19)
(26.1269 10.2909 0)
(27.6785 10.1352 -5.53653e-18)
(29.272 9.70217 5.12016e-18)
(30.923 8.91073 -6.63677e-18)
(32.5791 7.63868 0)
(34.0548 5.89067 -2.4461e-18)
(35.0312 3.50961 7.22393e-18)
(35.0539 0.919267 -4.9228e-18)
(34.0897 -1.09731 0)
(32.704 -2.28521 0)
(31.4417 -2.93361 0)
(30.4559 -3.3216 -5.66647e-18)
(29.6772 -3.55543 2.50257e-19)
(29.0266 -3.7025 -1.48575e-18)
(28.4789 -3.81021 2.88782e-18)
(28.0015 -3.92118 1.20577e-18)
(27.5297 -4.05515 -1.20116e-18)
(27.0369 -4.14574 1.97823e-18)
(26.5527 -4.1657 2.89985e-20)
(26.1087 -4.14344 0)
(25.7015 -4.10185 -2.37867e-19)
(25.3158 -4.04365 2.40234e-19)
(24.9436 -3.96804 5.84182e-19)
(24.582 -3.87576 2.82776e-19)
(24.227 -3.76616 0)
(23.8754 -3.63526 -2.21822e-19)
(23.5217 -3.479 0)
(23.1727 -3.28528 7.25132e-19)
(22.8102 -3.05516 9.68712e-19)
(22.4992 -2.74251 2.29787e-18)
(22.1215 -2.41166 0)
(16.8132 0.685321 9.74977e-19)
(17.1407 2.12412 -2.58961e-18)
(17.6445 3.4054 -2.97582e-18)
(18.2844 4.56797 5.6966e-18)
(19.0582 5.6125 0)
(19.96 6.55215 -1.62939e-18)
(20.9678 7.37549 1.36403e-18)
(22.0246 8.07969 -1.22488e-18)
(23.2111 8.65183 -1.46811e-19)
(24.5298 9.01948 -7.21183e-19)
(25.8874 9.15651 8.4052e-19)
(27.2927 9.04315 2.87069e-18)
(28.6911 8.66964 -5.33004e-18)
(30.0952 8.01306 6.40278e-18)
(31.5 7.02321 -3.44211e-18)
(32.803 5.68808 4.87826e-18)
(33.8259 3.88576 -3.70357e-18)
(34.2116 1.75956 8.01724e-18)
(33.7543 -0.168213 0)
(32.7408 -1.5231 0)
(31.6388 -2.35541 -3.21024e-18)
(30.7011 -2.87118 4.5607e-19)
(29.9372 -3.19694 3.09361e-18)
(29.2874 -3.41063 2.62805e-18)
(28.7289 -3.56137 -3.49226e-18)
(28.2376 -3.69044 -9.78938e-19)
(27.7682 -3.82067 -8.59939e-19)
(27.2971 -3.91772 -1.49321e-18)
(26.8345 -3.95847 7.79548e-19)
(26.4021 -3.95524 0)
(26.0027 -3.92628 2.02989e-19)
(25.6268 -3.87758 -3.55262e-19)
(25.2671 -3.80953 -3.26334e-19)
(24.9206 -3.72258 0)
(24.5844 -3.61647 0)
(24.2565 -3.48839 0)
(23.9339 -3.335 0)
(23.6218 -3.14787 4.33069e-19)
(23.3129 -2.92638 0)
(23.0475 -2.64519 -8.56818e-19)
(22.765 -2.33965 -2.6696e-20)
(18.2409 0.567254 0)
(18.522 1.78422 0)
(18.9373 2.85101 -2.14617e-18)
(19.4538 3.81686 0)
(20.0701 4.69148 0)
(20.7841 5.48996 0)
(21.5831 6.20836 0)
(22.4311 6.8435 0)
(23.3969 7.39196 0)
(24.5036 7.78308 -8.93762e-19)
(25.6807 7.96809 7.13259e-19)
(26.9099 7.9126 -6.30849e-19)
(28.1164 7.62161 2.0196e-18)
(29.304 7.10365 2.82061e-18)
(30.4881 6.35137 -3.92621e-18)
(31.6156 5.35322 2.88902e-18)
(32.5989 4.03105 -8.22478e-21)
(33.1988 2.38258 -5.52461e-18)
(33.1595 0.685174 2.96869e-18)
(32.5491 -0.709018 -3.16942e-18)
(31.6911 -1.68354 0)
(30.8636 -2.32686 -2.53404e-18)
(30.1489 -2.75059 -4.59604e-18)
(29.5229 -3.03929 4.3163e-18)
(28.9712 -3.2425 -2.07346e-18)
(28.4786 -3.40114 1.63323e-18)
(28.0161 -3.54058 -1.61713e-18)
(27.5654 -3.64688 -6.16465e-19)
(27.1257 -3.70652 -1.03799e-18)
(26.709 -3.72351 -4.37548e-19)
(26.32 -3.71008 0)
(25.9541 -3.67321 0)
(25.6059 -3.61481 -4.60743e-19)
(25.2725 -3.53562 -2.521e-19)
(24.9522 -3.43579 9.95661e-20)
(24.6438 -3.31375 3.75468e-21)
(24.3461 -3.16718 0)
(24.0633 -2.99109 -3.04956e-19)
(23.7935 -2.78453 -4.68605e-20)
(23.5629 -2.5361 0)
(23.3351 -2.26525 5.80368e-19)
(19.5192 0.463734 0)
(19.759 1.48554 -1.8665e-18)
(20.1007 2.36585 3.62074e-18)
(20.5172 3.15979 0)
(21.0076 3.8822 0)
(21.5715 4.54767 2.04815e-18)
(22.2018 5.15634 3.07756e-18)
(22.8758 5.70543 -1.86003e-18)
(23.6477 6.1971 0)
(24.5476 6.57289 -7.21696e-21)
(25.5278 6.78091 -9.90265e-19)
(26.5646 6.78039 -7.16864e-19)
(27.5815 6.57718 1.90263e-18)
(28.5743 6.19176 5.97075e-19)
(29.5624 5.63816 -2.64502e-18)
(30.5199 4.91045 1.02576e-18)
(31.4094 3.96623 -3.46057e-18)
(32.0918 2.75096 3.95033e-18)
(32.3415 1.3675 1.05519e-18)
(32.0991 0.0684091 2.1738e-18)
(31.5333 -0.963684 0)
(30.8773 -1.70463 2.10091e-18)
(30.2546 -2.21885 -1.72711e-18)
(29.6818 -2.58339 3.69067e-18)
(29.1597 -2.84484 0)
(28.6833 -3.04246 2.79543e-18)
(28.2374 -3.20293 0)
(27.81 -3.32432 1.01151e-18)
(27.3965 -3.40292 -1.02487e-18)
(27.0016 -3.44076 7.90719e-19)
(26.6293 -3.44551 -2.94107e-19)
(26.2782 -3.42351 2.96118e-19)
(25.9453 -3.37779 2.10468e-19)
(25.6283 -3.30972 4.11589e-19)
(25.3261 -3.21997 -7.7981e-20)
(25.0383 -3.10814 -1.04465e-19)
(24.765 -2.97324 0)
(24.5094 -2.81305 1.47468e-19)
(24.2716 -2.6275 3.98723e-20)
(24.0693 -2.41249 -3.97677e-20)
(23.8767 -2.18142 -4.71842e-19)
(20.6441 0.374475 0)
(20.8476 1.22607 -3.36559e-18)
(21.1283 1.94601 6.07857e-18)
(21.464 2.59173 -2.2937e-18)
(21.8541 3.18056 1.79655e-18)
(22.2989 3.72525 -6.78346e-18)
(22.7942 4.22791 0)
(23.3256 4.68651 -1.12567e-18)
(23.9338 5.10579 0)
(24.6474 5.44149 0)
(25.4363 5.64894 -1.08187e-18)
(26.2808 5.6891 1.47406e-18)
(27.115 5.56415 0)
(27.9301 5.29523 -1.2771e-18)
(28.7424 4.90374 0)
(29.5393 4.38893 -4.29846e-18)
(30.3077 3.7316 4.87911e-18)
(30.9763 2.87212 6.67604e-19)
(31.3813 1.8184 -9.14583e-19)
(31.4185 0.713988 -1.85406e-18)
(31.1388 -0.27321 -1.57494e-18)
(30.693 -1.05082 0)
(30.2034 -1.62664 -2.97542e-18)
(29.7169 -2.0544 1.33633e-18)
(29.2513 -2.37137 1.22627e-18)
(28.8126 -2.61185 -1.23691e-19)
(28.3975 -2.80134 -3.09871e-18)
(28.0006 -2.94408 0)
(27.6178 -3.04347 7.66154e-19)
(27.2508 -3.10289 -6.03165e-19)
(26.9021 -3.1278 6.07351e-19)
(26.5721 -3.12357 -8.49287e-19)
(26.2594 -3.09377 3.9689e-19)
(25.9631 -3.04048 1.62709e-19)
(25.6825 -2.96504 4.4728e-20)
(25.4178 -2.86809 1.03553e-19)
(25.1697 -2.74991 0)
(24.9405 -2.61029 -1.76344e-19)
(24.7308 -2.4503 0)
(24.5524 -2.26915 0)
(24.3862 -2.07832 0)
(21.6177 0.298797 0)
(21.7894 1.00294 1.02489e-18)
(22.0193 1.58634 -4.40509e-18)
(22.2896 2.10597 3.28902e-18)
(22.5999 2.57983 1.53291e-18)
(22.9503 3.01836 -8.61164e-19)
(23.3383 3.42438 5.31383e-18)
(23.7546 3.7967 -6.28376e-18)
(24.2283 4.14075 4.30809e-18)
(24.7832 4.4248 -2.44772e-18)
(25.4011 4.6147 5.97068e-19)
(26.0682 4.67793 -1.90016e-18)
(26.7339 4.61341 1.89783e-18)
(27.3883 4.43826 2.43982e-18)
(28.0429 4.17358 -2.21693e-18)
(28.6914 3.8213 -2.36818e-19)
(29.3309 3.37572 0)
(29.9287 2.78782 -5.90747e-19)
(30.3798 2.02839 4.69449e-18)
(30.5867 1.16159 -4.78529e-18)
(30.5363 0.304082 1.34019e-18)
(30.2992 -0.435869 0)
(29.9663 -1.02471 1.74059e-18)
(29.5936 -1.48654 -1.61759e-18)
(29.2104 -1.84356 8.51321e-19)
(28.8322 -2.12111 -9.63889e-19)
(28.4653 -2.34045 8.07338e-19)
(28.11 -2.50752 6.92248e-19)
(27.7653 -2.6293 -6.27891e-19)
(27.4328 -2.71085 -9.92495e-19)
(27.1146 -2.75715 9.97511e-19)
(26.812 -2.77294 -1.1028e-20)
(26.5252 -2.76196 3.08858e-19)
(26.2538 -2.7269 -2.1502e-19)
(25.9981 -2.66974 0)
(25.7586 -2.592 3.3422e-20)
(25.5361 -2.49496 -8.54756e-20)
(25.3322 -2.37971 3.67069e-20)
(25.1476 -2.24815 4.32815e-20)
(24.9893 -2.10088 -2.21958e-20)
(24.8445 -1.94818 -1.15204e-19)
(22.4472 0.235837 -1.57669e-18)
(22.5908 0.813042 -1.03912e-18)
(22.7785 1.28136 -2.22228e-18)
(22.9957 1.6951 2.60407e-18)
(23.2421 2.07179 3.64865e-18)
(23.5177 2.41957 -1.69322e-18)
(23.8206 2.74129 -2.85181e-18)
(24.1448 3.03653 0)
(24.5106 3.31039 -2.04955e-18)
(24.9359 3.54097 9.68131e-19)
(25.4097 3.70411 5.41142e-19)
(25.9236 3.77517 1.07256e-18)
(26.4414 3.75157 -2.93504e-18)
(26.9546 3.64558 2.56797e-18)
(27.4706 3.47486 0)
(27.9856 3.24211 -6.19007e-19)
(28.5003 2.94825 5.24451e-18)
(29.002 2.55694 -5.09017e-18)
(29.4281 2.03232 -1.73978e-19)
(29.7065 1.39478 6.85579e-18)
(29.8034 0.710409 -7.32934e-18)
(29.7351 0.0694032 0)
(29.5531 -0.478635 -8.47318e-19)
(29.3046 -0.934131 4.25148e-19)
(29.0205 -1.30357 0)
(28.7211 -1.60121 0)
(28.4185 -1.84159 -2.33355e-18)
(28.1177 -2.02935 1.77998e-18)
(27.8206 -2.1717 -9.24353e-19)
(27.5303 -2.27413 9.2815e-19)
(27.2498 -2.34145 3.67784e-19)
(26.9812 -2.37802 8.83967e-19)
(26.7255 -2.38757 -1.28954e-18)
(26.4834 -2.37312 3.58523e-19)
(26.2557 -2.33715 -5.00454e-20)
(26.0431 -2.28174 1.32151e-19)
(25.8463 -2.20886 1.31934e-19)
(25.6667 -2.1203 -3.77319e-20)
(25.5045 -2.01836 -2.90337e-20)
(25.3638 -1.90414 1.24196e-20)
(25.2365 -1.78661 4.87768e-20)
(23.1418 0.184496 0)
(23.2607 0.6533 -5.60843e-19)
(23.4132 1.02565 -7.86799e-19)
(23.5872 1.35173 6.08896e-18)
(23.7826 1.64778 -4.05541e-18)
(23.9989 1.91985 -1.05639e-18)
(24.2348 2.17058 2.00121e-18)
(24.4862 2.40008 0)
(24.7669 2.61276 6.5757e-19)
(25.0895 2.79391 -6.08301e-19)
(25.4474 2.92735 7.14738e-19)
(25.8357 2.99566 -9.46591e-19)
(26.2299 2.99607 1.52549e-18)
(26.6236 2.93689 3.28847e-18)
(27.0213 2.83152 -2.94834e-18)
(27.4205 2.6824 -2.88069e-18)
(27.8224 2.49329 2.85439e-18)
(28.2237 2.23862 -3.88648e-22)
(28.5888 1.88754 -4.18477e-18)
(28.8705 1.44147 4.34221e-18)
(29.0366 0.932131 5.03587e-18)
(29.0778 0.421396 -4.86755e-18)
(29.0151 -0.0446829 3.32431e-19)
(28.879 -0.454626 0)
(28.6946 -0.803931 0)
(28.4812 -1.09695 0)
(28.2525 -1.34107 0)
(28.0158 -1.53825 0)
(27.7749 -1.69374 0)
(27.5345 -1.81196 0)
(27.2987 -1.89699 -3.02063e-19)
(27.0702 -1.9526 9.45304e-19)
(26.8509 -1.98222 -5.4888e-19)
(26.6422 -1.98884 -3.08275e-19)
(26.4454 -1.97508 -6.71395e-20)
(26.2613 -1.94331 0)
(26.0908 -1.89573 1.14376e-20)
(25.9349 -1.83444 7.59568e-21)
(25.7936 -1.76172 -4.2026e-20)
(25.6693 -1.67883 1.54248e-21)
(25.5572 -1.59329 3.50653e-20)
(23.7129 0.143259 -6.97218e-19)
(23.8101 0.520331 -2.59121e-18)
(23.9332 0.813444 -3.47522e-19)
(24.0721 1.06815 3.16196e-18)
(24.2266 1.29859 4.50857e-18)
(24.396 1.50908 4.75574e-19)
(24.5792 1.70191 -3.66858e-18)
(24.7735 1.87758 1.95664e-18)
(24.9879 2.03964 -2.2949e-18)
(25.2311 2.17842 4.5086e-19)
(25.4989 2.28351 -7.34436e-19)
(25.7884 2.34322 -5.61018e-20)
(26.0836 2.3553 7.80725e-19)
(26.3801 2.32522 -1.64061e-18)
(26.6807 2.26256 2.3688e-18)
(26.9833 2.16922 -2.45162e-18)
(27.2892 2.04928 4.58228e-18)
(27.5986 1.8856 -9.23578e-18)
(27.8918 1.65514 4.953e-18)
(28.1399 1.3533 -6.14238e-18)
(28.3195 0.99333 6.23896e-18)
(28.4141 0.612936 0)
(28.4273 0.246462 0)
(28.3756 -0.0924862 0)
(28.2752 -0.394883 8.83859e-20)
(28.1407 -0.65882 -2.82248e-18)
(27.9846 -0.886164 2.64608e-18)
(27.8138 -1.07644 1.46013e-19)
(27.6327 -1.23239 0)
(27.4466 -1.3566 -9.75534e-19)
(27.2598 -1.45184 9.73665e-19)
(27.0759 -1.52094 9.7217e-20)
(26.897 -1.56665 -8.51452e-20)
(26.7252 -1.59155 -5.48393e-19)
(26.5618 -1.59804 6.08388e-19)
(26.408 -1.58834 0)
(26.2648 -1.56459 -3.58353e-20)
(26.1328 -1.52877 6.25525e-21)
(26.0124 -1.48296 7.70643e-20)
(25.9046 -1.42835 -1.02944e-20)
(25.807 -1.37095 9.69556e-21)
(24.1569 0.112228 6.12893e-19)
(24.2363 0.415413 0)
(24.3357 0.646212 -1.96808e-19)
(24.4471 0.845972 1.36002e-18)
(24.5701 1.02608 1.28867e-18)
(24.7036 1.18943 -2.44312e-18)
(24.847 1.33808 0)
(24.9983 1.47279 7.35735e-19)
(25.1636 1.59623 3.47512e-19)
(25.3484 1.70207 3.74469e-19)
(25.5501 1.78364 9.4086e-20)
(25.767 1.83321 6.50888e-19)
(25.9886 1.84925 -6.33461e-19)
(26.2118 1.8354 -1.20722e-18)
(26.4386 1.79853 -8.40827e-19)
(26.6672 1.74 -8.34413e-19)
(26.8987 1.66335 -8.90906e-19)
(27.1339 1.5568 2.95412e-18)
(27.3619 1.40418 0)
(27.5651 1.20017 4.47824e-18)
(27.7281 0.949821 -4.27068e-18)
(27.8359 0.675269 -4.79881e-18)
(27.8853 0.399745 4.77091e-18)
(27.8839 0.134537 0)
(27.8408 -0.111281 -8.12387e-20)
(27.7657 -0.33328 0)
(27.668 -0.530283 1.44306e-19)
(27.5534 -0.700547 -2.03427e-18)
(27.4258 -0.844905 1.89385e-18)
(27.2897 -0.96434 1.59354e-18)
(27.1495 -1.06034 -1.58542e-18)
(27.0085 -1.13471 -8.82448e-20)
(26.869 -1.18939 4.1311e-20)
(26.7333 -1.22634 0)
(26.6027 -1.24749 -5.62828e-20)
(26.4786 -1.25467 0)
(26.3619 -1.2497 -1.45902e-19)
(26.2533 -1.23427 -2.95326e-21)
(26.1532 -1.2101 9.46575e-20)
(26.0621 -1.17819 0)
(25.979 -1.14317 0)
(24.4874 0.0896034 -1.47887e-18)
(24.5532 0.335981 1.40226e-18)
(24.6344 0.520099 4.19509e-19)
(24.7249 0.679072 -1.2397e-18)
(24.8242 0.821856 2.16598e-19)
(24.9314 0.950428 0)
(25.0456 1.06661 -2.63721e-18)
(25.1656 1.17129 1.97622e-18)
(25.2954 1.26646 4.22375e-19)
(25.4387 1.34791 -6.38732e-19)
(25.5938 1.41129 2.70783e-19)
(25.7594 1.45142 -2.60184e-19)
(25.9285 1.46729 1.20542e-18)
(26.0991 1.46145 -1.03313e-18)
(26.2724 1.4388 3.23094e-19)
(26.4471 1.4004 -3.2564e-19)
(26.6237 1.34922 4.53467e-18)
(26.8034 1.27715 -1.57846e-18)
(26.9796 1.17291 -5.31895e-18)
(27.1415 1.03207 2.71809e-18)
(27.2791 0.85631 -5.97729e-20)
(27.3806 0.658905 0)
(27.4413 0.455105 -3.58807e-18)
(27.4644 0.253087 3.55838e-18)
(27.4546 0.060251 3.43607e-18)
(27.4179 -0.118727 -3.46072e-18)
(27.3609 -0.281514 1.58789e-18)
(27.2878 -0.426026 -1.58843e-18)
(27.2015 -0.552029 0)
(27.1057 -0.659513 -1.29494e-18)
(27.004 -0.749032 1.29406e-18)
(26.8994 -0.821571 1.06903e-18)
(26.794 -0.878359 -1.51459e-18)
(26.6898 -0.920745 4.75614e-19)
(26.5883 -0.95013 5.98546e-21)
(26.4907 -0.967926 3.23073e-19)
(26.3978 -0.975528 -4.63532e-19)
(26.3103 -0.974275 1.39154e-19)
(26.2287 -0.965515 4.99074e-20)
(26.1535 -0.95006 -2.8969e-20)
(26.0842 -0.931339 -2.51541e-20)
(24.7375 0.0726859 0)
(24.7926 0.274802 -4.51283e-19)
(24.8596 0.423484 -1.08445e-19)
(24.934 0.551629 -1.68315e-18)
(25.0154 0.666272 8.08632e-19)
(25.1026 0.768786 2.34126e-18)
(25.195 0.860788 -4.31111e-18)
(25.2916 0.943178 1.99662e-18)
(25.3953 1.01749 4.65292e-19)
(25.5086 1.08085 -1.64062e-18)
(25.63 1.13038 6.10034e-19)
(25.7587 1.16257 2.42665e-19)
(25.89 1.17678 -1.43057e-19)
(26.0224 1.17483 1.47851e-19)
(26.1566 1.1603 -1.79428e-18)
(26.2917 1.13399 2.36663e-18)
(26.4279 1.09826 2.78076e-18)
(26.5661 1.04753 -6.48156e-18)
(26.7025 0.973957 5.57881e-18)
(26.83 0.874193 -2.0309e-18)
(26.9422 0.748672 -2.46318e-18)
(27.0302 0.60565 5.16736e-18)
(27.0898 0.455199 8.9088e-20)
(27.1222 0.302944 -2.54409e-18)
(27.1297 0.154401 4.66075e-20)
(27.1158 0.0135711 -7.32788e-20)
(27.0852 -0.117108 -2.47642e-20)
(27.0407 -0.235651 1.17381e-18)
(26.9843 -0.341384 -2.2686e-18)
(26.9187 -0.43382 1.09566e-18)
(26.8469 -0.51298 -8.37928e-21)
(26.7712 -0.579295 -1.32747e-20)
(26.6936 -0.633465 6.93445e-21)
(26.6155 -0.676348 -3.49037e-19)
(26.5383 -0.708902 3.51692e-19)
(26.4631 -0.73213 2.99357e-19)
(26.3907 -0.747056 -2.85479e-19)
(26.3218 -0.754681 0)
(26.2567 -0.756014 0)
(26.1959 -0.751685 1.1214e-20)
(26.1393 -0.744139 4.4945e-21)
(24.9303 0.0597097 0)
(24.9767 0.226811 2.14197e-18)
(25.0324 0.348145 2.51157e-18)
(25.0943 0.452572 -2.51088e-18)
(25.1616 0.545622 2.02081e-18)
(25.2333 0.628272 -2.01832e-18)
(25.309 0.701952 -7.47733e-19)
(25.3879 0.767523 1.2219e-18)
(25.4718 0.826177 -4.27535e-19)
(25.5626 0.875937 0)
(25.6591 0.91487 1.07983e-19)
(25.7607 0.940554 0)
(25.8641 0.95263 4.20364e-19)
(25.9682 0.952415 -5.22973e-19)
(26.0734 0.942563 0)
(26.1791 0.923695 -2.1806e-19)
(26.2852 0.897664 0)
(26.3925 0.860592 2.26163e-18)
(26.4984 0.807022 -2.55125e-18)
(26.5985 0.734552 0)
(26.6883 0.643194 0)
(26.7616 0.538333 -1.3208e-19)
(26.8149 0.426739 -1.83935e-18)
(26.8485 0.312227 1.85711e-18)
(26.8638 0.198747 -1.96053e-18)
(26.8626 0.0894467 2.01454e-18)
(26.8482 -0.0135417 3.33733e-20)
(26.8225 -0.108587 0)
(26.7867 -0.194923 0)
(26.7429 -0.271909 -8.10525e-19)
(26.6933 -0.339307 7.57931e-19)
(26.6396 -0.397232 1.23638e-20)
(26.5834 -0.446036 0)
(26.526 -0.486235 2.5948e-20)
(26.4684 -0.518448 0)
(26.4116 -0.543357 -8.45422e-21)
(26.3562 -0.561682 -2.21939e-19)
(26.3028 -0.574139 1.45681e-19)
(26.2519 -0.581462 7.59579e-20)
(26.2037 -0.584123 -1.03922e-20)
(26.1584 -0.583793 -9.01616e-21)
(25.0812 0.0495597 -5.52776e-19)
(25.1205 0.188593 -3.01005e-19)
(25.1672 0.288492 -1.46467e-18)
(25.2189 0.374362 0)
(25.2751 0.450566 0)
(25.3347 0.517818 0)
(25.3973 0.577381 6.91618e-19)
(25.4623 0.630052 -2.33992e-18)
(25.5311 0.676772 1.08487e-18)
(25.6047 0.71617 1.39636e-18)
(25.6824 0.746939 -4.39695e-19)
(25.7637 0.7674 9.84805e-20)
(25.8461 0.777366 -9.88167e-20)
(25.9289 0.777825 6.50026e-19)
(26.0123 0.770759 -6.60598e-19)
(26.0957 0.756668 0)
(26.1792 0.736997 1.40892e-18)
(26.2632 0.709026 -1.44986e-18)
(26.346 0.668945 -2.1486e-18)
(26.4245 0.61508 4.53829e-18)
(26.4959 0.54734 5.14832e-19)
(26.5557 0.469403 -3.97839e-18)
(26.6011 0.385936 -1.65523e-19)
(26.6323 0.29954 2.88465e-18)
(26.6499 0.213 -1.44759e-18)
(26.6552 0.128688 0)
(26.6502 0.0483193 8.16914e-20)
(26.6362 -0.0268512 0)
(26.6142 -0.0961269 -7.70869e-20)
(26.5856 -0.158884 0)
(26.5518 -0.214805 4.20532e-20)
(26.5143 -0.263843 6.64381e-20)
(26.4743 -0.30615 5.22088e-19)
(26.4327 -0.342016 -5.51003e-19)
(26.3903 -0.371827 0)
(26.348 -0.396032 0)
(26.3063 -0.415122 -2.31368e-20)
(26.2656 -0.429596 6.23325e-20)
(26.2263 -0.439973 -1.41689e-19)
(26.1888 -0.446602 7.70855e-20)
(26.1532 -0.450571 2.43466e-20)
(25.201 0.0414946 -3.67928e-19)
(25.2343 0.1578 8.46051e-19)
(25.2737 0.240684 -1.29727e-18)
(25.3172 0.311842 1.66874e-19)
(25.3645 0.374731 0)
(25.4144 0.429891 1.02121e-18)
(25.4666 0.478433 -2.0511e-18)
(25.5206 0.521081 7.58153e-20)
(25.5774 0.558589 7.13589e-19)
(25.6377 0.590003 -1.31311e-18)
(25.7009 0.614438 0)
(25.7667 0.630728 2.13088e-20)
(25.833 0.638794 0)
(25.8995 0.639396 0)
(25.9662 0.634032 0)
(26.0327 0.62311 0)
(26.099 0.607759 1.30573e-18)
(26.1652 0.586062 -1.15976e-18)
(26.2303 0.55535 0)
(26.2922 0.514479 0)
(26.3488 0.463367 1.45302e-18)
(26.397 0.404635 -1.90875e-18)
(26.4347 0.341582 2.0107e-18)
(26.4621 0.276 -2.10723e-18)
(26.4794 0.209856 0)
(26.4874 0.1449 9.69169e-19)
(26.4876 0.0824566 -2.3032e-18)
(26.4809 0.023455 1.06834e-18)
(26.4678 -0.0315331 1.30762e-20)
(26.4494 -0.0819754 0)
(26.4267 -0.127559 -5.44589e-20)
(26.4008 -0.168177 -1.00857e-20)
(26.3726 -0.203873 0)
(26.3427 -0.234802 -4.63296e-20)
(26.3119 -0.261199 0)
(26.2807 -0.283354 0)
(26.2497 -0.301595 2.15437e-20)
(26.219 -0.316264 -3.51865e-20)
(26.1892 -0.327722 6.62951e-20)
(26.1603 -0.336226 -5.14238e-21)
(26.1327 -0.342448 -4.46834e-20)
(25.297 0.0350016 0)
(25.3254 0.132744 0)
(25.3587 0.201969 1.19443e-18)
(25.3956 0.261329 6.12933e-20)
(25.4355 0.313572 0)
(25.4776 0.359122 9.30879e-19)
(25.5214 0.398957 6.55592e-19)
(25.5667 0.433724 -1.58724e-18)
(25.614 0.464038 3.74387e-19)
(25.6638 0.489234 -6.69113e-19)
(25.7157 0.508722 -9.0741e-20)
(25.7693 0.521686 -1.98995e-20)
(25.8233 0.528124 0)
(25.8771 0.528629 -1.23868e-19)
(25.9309 0.524347 0)
(25.9843 0.515615 0)
(26.0373 0.50332 -1.03635e-18)
(26.0899 0.486106 8.61888e-19)
(26.1415 0.462101 0)
(26.1904 0.430533 0)
(26.2354 0.391363 -1.38559e-18)
(26.274 0.34652 2.93259e-18)
(26.3049 0.298389 -2.97661e-18)
(26.3282 0.248229 1.47716e-18)
(26.3439 0.197438 0)
(26.3527 0.147296 2.08813e-19)
(26.3555 0.0988041 1.50512e-19)
(26.353 0.0526371 0)
(26.3456 0.00923869 -7.23427e-19)
(26.3339 -0.0309659 8.57601e-19)
(26.3189 -0.067708 1.3483e-19)
(26.3011 -0.100868 -4.83844e-20)
(26.2814 -0.13044 -3.84364e-20)
(26.2601 -0.156501 4.31966e-20)
(26.2379 -0.179194 0)
(26.2151 -0.198703 3.25644e-20)
(26.1922 -0.215248 0)
(26.1693 -0.229061 1.80279e-19)
(26.1468 -0.240389 -1.17675e-19)
(26.1249 -0.249422 -2.37669e-21)
(26.1037 -0.25655 -2.51241e-20)
(25.3747 0.0297157 4.80922e-19)
(25.3989 0.112186 2.19833e-19)
(25.4273 0.170343 -1.19645e-18)
(25.4587 0.220146 3.22528e-18)
(25.4926 0.263794 -1.54703e-18)
(25.5283 0.301633 6.04316e-19)
(25.5653 0.334518 6.23952e-19)
(25.6034 0.363027 5.27525e-19)
(25.643 0.387666 4.14996e-19)
(25.6845 0.407979 2.73016e-19)
(25.7275 0.423574 -1.93597e-19)
(25.7715 0.433889 -1.77005e-20)
(25.8157 0.438967 -3.71253e-20)
(25.8596 0.43928 7.36339e-19)
(25.9034 0.435713 -5.36149e-19)
(25.9466 0.428552 1.02782e-18)
(25.9892 0.418495 -8.82139e-19)
(26.0313 0.404585 0)
(26.0723 0.385505 9.29212e-20)
(26.1112 0.360746 -9.74967e-19)
(26.147 0.330307 9.94842e-19)
(26.178 0.295651 -8.8326e-19)
(26.2031 0.258535 2.17258e-18)
(26.2225 0.219858 -1.08677e-18)
(26.2362 0.180621 0)
(26.2447 0.141763 -8.68758e-20)
(26.2487 0.104033 -8.674e-20)
(26.2486 0.0679136 0)
(26.2447 0.0337398 -5.94422e-19)
(26.2375 0.00183806 5.73826e-19)
(26.2276 -0.0275761 -7.83734e-20)
(26.2155 -0.0543943 0)
(26.2017 -0.0785914 3.58457e-20)