/*--------------------------------*- C++ -*----------------------------------*\
  =========                 |
  \\      /  F ield         | OpenFOAM: The Open Source CFD Toolbox
   \\    /   O peration     | Website:  https://openfoam.org
    \\  /    A nd           | Version:  11
     \\/     M anipulation  |
\*---------------------------------------------------------------------------*/
FoamFile
{
    format      ascii;
    class       volScalarField;
    location    "250";
    object      nut;
}
// * * * * * * * * * * * * * * * * * * * * * * * * * * * * * * * * * * * * * //

dimensions      [0 2 -1 0 0 0 0];

internalField   nonuniform List<scalar> 
11040
(
0.00175709
0.00179771
0.00193912
0.00251545
0.00294851
0.00326277
0.00343833
0.00335171
0.00319599
0.00309604
0.00307376
0.00318463
0.00340999
0.00368133
0.00372383
0.00349321
0.00285154
0.00240669
0.00222907
0.0021646
0.00212906
0.00209085
0.00205787
0.00203642
0.0020313
0.00201642
0.00196948
0.00193201
0.00190293
0.00188195
0.00186256
0.00184279
0.00182285
0.00180217
0.00177953
0.00175385
0.00172284
0.00168644
0.00163209
0.00158646
0.00132515
0.00812243
0.00820743
0.00814153
0.00789703
0.00762578
0.00719374
0.00655572
0.00565931
0.00494103
0.00446215
0.00415832
0.00411645
0.00412839
0.004047
0.00370912
0.00384596
0.00403331
0.0041957
0.0042844
0.00417417
0.00392882
0.00366752
0.00345782
0.00330422
0.00318871
0.00307885
0.00303256
0.00300852
0.00297085
0.00292679
0.00288821
0.00285905
0.00283803
0.00282331
0.00281403
0.00280959
0.00281088
0.00281608
0.00283126
0.00285559
0.00273053
0.0169308
0.0171035
0.0170836
0.0167057
0.0162242
0.0154557
0.0143313
0.0126893
0.0112424
0.010179
0.00944475
0.00922728
0.00916376
0.00895805
0.00817117
0.00707452
0.005783
0.00561146
0.00579057
0.006024
0.00617298
0.00619301
0.00613355
0.00604966
0.00596897
0.00583311
0.00563533
0.00553682
0.00547794
0.00543471
0.00539711
0.00536064
0.00532443
0.00528837
0.00525249
0.00521519
0.00517642
0.00512661
0.00507718
0.00500455
0.00461489
0.0273863
0.0276431
0.0276232
0.0271248
0.0264099
0.0252932
0.0236676
0.0213325
0.0191014
0.0174069
0.0162285
0.0157924
0.0156148
0.0152292
0.0140548
0.0123147
0.00991349
0.0083667
0.00754038
0.00753373
0.00767385
0.00775229
0.00780714
0.00784425
0.00786093
0.00780899
0.00768038
0.00760172
0.00755418
0.00752532
0.00750672
0.00749246
0.00747958
0.00746618
0.00745102
0.00743174
0.00740738
0.00736855
0.0073157
0.00726179
0.00677616
0.0389739
0.0393053
0.039284
0.038703
0.0377996
0.0364053
0.0343798
0.0314951
0.0285405
0.0262115
0.0245718
0.0238634
0.023516
0.0229178
0.0213024
0.0189394
0.0155583
0.0129796
0.0113617
0.0103435
0.00970946
0.00939565
0.00943568
0.00951875
0.00956294
0.00954163
0.00946972
0.00944636
0.0094431
0.00944745
0.00945734
0.00947124
0.00948688
0.00950158
0.0095132
0.00951898
0.00951717
0.00949985
0.00945963
0.0094314
0.00897254
0.0511464
0.0515332
0.0515098
0.0508901
0.0498684
0.0483026
0.0460292
0.0427499
0.0391554
0.0363152
0.0342941
0.0333072
0.0327524
0.0319198
0.029895
0.0268977
0.0224053
0.0186643
0.0162605
0.0147061
0.0136187
0.0128444
0.0123115
0.0119355
0.0116605
0.0114999
0.0114321
0.0114283
0.0114227
0.0114217
0.0114366
0.0114642
0.0114964
0.0115275
0.0115554
0.0115781
0.0115931
0.0115932
0.0115666
0.0115554
0.0111506
0.0633343
0.0637505
0.063727
0.0631112
0.0620528
0.0604374
0.0580792
0.0546513
0.0507805
0.0475219
0.0451607
0.0439179
0.0431356
0.0420591
0.0396881
0.0359636
0.0305405
0.0257459
0.0224599
0.020249
0.0187173
0.0176318
0.0168304
0.0162137
0.0157543
0.0152974
0.0147682
0.01435
0.0140295
0.0138861
0.0138507
0.01385
0.0138498
0.01385
0.0138569
0.0138674
0.0138742
0.0138676
0.0138332
0.0138165
0.013429
0.0749963
0.0754136
0.0753936
0.0748171
0.0737988
0.0722491
0.0699404
0.0666909
0.0629125
0.0595324
0.0569162
0.0553907
0.0543611
0.0530441
0.0503132
0.0461772
0.0401602
0.0345377
0.030423
0.027511
0.0254084
0.0238886
0.0227672
0.0218944
0.0212262
0.0205753
0.0198045
0.0191464
0.0185942
0.0181297
0.0177398
0.0174063
0.0171263
0.0169583
0.0168853
0.01684
0.0167912
0.0167287
0.0166398
0.0165776
0.0161314
0.0856897
0.0860828
0.0860674
0.0855557
0.084636
0.0832409
0.0811497
0.0782777
0.0748616
0.0716438
0.0689932
0.0672356
0.065978
0.0644166
0.0615477
0.0573125
0.0511143
0.0449914
0.0401872
0.0365989
0.0338925
0.0318789
0.0303784
0.0292041
0.0282884
0.0274192
0.026432
0.0255678
0.024828
0.0241817
0.0236067
0.0230858
0.0226047
0.0221573
0.0217415
0.0213503
0.0210008
0.0207286
0.0205006
0.0203391
0.0197585
0.0951283
0.0954788
0.0954677
0.0950336
0.0942449
0.093054
0.0912762
0.0888799
0.0859841
0.0831376
0.0806596
0.0788399
0.0774016
0.0757246
0.0729222
0.0688756
0.0629282
0.056722
0.0514373
0.0472968
0.0440406
0.0415452
0.039651
0.0381515
0.0369605
0.0358527
0.0346472
0.0335772
0.0326488
0.0318307
0.0310961
0.0304246
0.0297994
0.0292064
0.0286342
0.0280725
0.027512
0.0269493
0.0263723
0.0258919
0.025013
0.103202
0.103501
0.103492
0.103137
0.102487
0.10151
0.100068
0.0981557
0.0958239
0.0934476
0.0912837
0.0895619
0.0881092
0.0864515
0.0838785
0.0802462
0.074922
0.0689895
0.0635833
0.0590707
0.055416
0.0525698
0.0503497
0.0485531
0.0470947
0.0457543
0.0443485
0.0430881
0.0419801
0.0409956
0.0401067
0.0392912
0.0385311
0.0378111
0.0371181
0.0364401
0.0357646
0.0350813
0.0343625
0.0337072
0.0325093
0.10995
0.110195
0.110189
0.109904
0.109383
0.108604
0.10747
0.105989
0.104178
0.102256
0.10047
0.0989605
0.0976212
0.0961073
0.0938838
0.090816
0.0863066
0.0810964
0.076051
0.0715511
0.0676984
0.0645609
0.062064
0.0600224
0.0583462
0.0568232
0.0552782
0.0538768
0.0526251
0.0515001
0.0504771
0.0495351
0.0486562
0.0478256
0.0470298
0.0462563
0.0454928
0.0447298
0.0439416
0.0432186
0.0419647
0.115506
0.115702
0.115697
0.115472
0.11506
0.114449
0.113572
0.112445
0.111065
0.109572
0.108129
0.106873
0.10572
0.104422
0.102596
0.100133
0.0965443
0.0923037
0.0879954
0.0838766
0.0801673
0.0770198
0.0744222
0.0722424
0.0704124
0.0687505
0.067092
0.0655796
0.0642187
0.0629915
0.0618739
0.0608445
0.0598845
0.058985
0.0581249
0.0572915
0.0564741
0.0556644
0.0548428
0.0540851
0.0528738
0.120042
0.120197
0.120193
0.120017
0.119693
0.119217
0.118544
0.117691
0.116639
0.115507
0.114389
0.113367
0.112416
0.111351
0.109908
0.107982
0.105266
0.102034
0.0985907
0.0951508
0.0918898
0.0890016
0.0865381
0.0844271
0.0826071
0.0809371
0.0792838
0.0777619
0.0763762
0.0751136
0.0739556
0.0728843
0.071884
0.0709412
0.0700441
0.0691821
0.0683451
0.0675251
0.0667112
0.0659571
0.0648381
0.123735
0.123856
0.123852
0.123715
0.123461
0.12309
0.122575
0.12193
0.121142
0.120289
0.119431
0.118622
0.117855
0.117002
0.115887
0.114429
0.112435
0.110057
0.107478
0.104822
0.102182
0.0997638
0.0976268
0.0957292
0.0940553
0.0925082
0.0909878
0.0895766
0.0882758
0.087077
0.0859741
0.0849473
0.0839836
0.0830729
0.0822059
0.0813745
0.080571
0.0797894
0.079019
0.0783025
0.0773135
0.12674
0.126834
0.126832
0.126724
0.126524
0.126235
0.12584
0.125351
0.124766
0.124118
0.123459
0.122825
0.122214
0.121543
0.120693
0.119608
0.118172
0.11647
0.114616
0.112658
0.110663
0.108771
0.107056
0.105498
0.104101
0.102794
0.101507
0.1003
0.0991745
0.0981271
0.0971506
0.0962366
0.0953763
0.0945678
0.0937985
0.0930614
0.092351
0.091663
0.0909903
0.090362
0.0895455
0.129194
0.129268
0.129266
0.129181
0.129023
0.128795
0.128497
0.12812
0.127672
0.127179
0.126673
0.12618
0.125701
0.125177
0.124534
0.123733
0.122707
0.121505
0.120199
0.118807
0.117371
0.115969
0.114669
0.113475
0.11238
0.111347
0.110332
0.109379
0.108485
0.107644
0.106855
0.10611
0.105407
0.10474
0.104105
0.103497
0.102919
0.102361
0.101819
0.101312
0.100688
0.131117
0.131176
0.131175
0.131107
0.13098
0.130797
0.13056
0.130265
0.129918
0.129536
0.129143
0.128761
0.128382
0.127971
0.127477
0.126875
0.126125
0.12526
0.124329
0.123336
0.1223
0.12128
0.120323
0.119427
0.118595
0.117808
0.117041
0.116313
0.115626
0.114978
0.114366
0.113788
0.113244
0.112729
0.112238
0.11177
0.111321
0.110891
0.110478
0.110093
0.109641
0.132573
0.132621
0.132621
0.132565
0.132461
0.132311
0.132119
0.131882
0.131606
0.131304
0.130991
0.130685
0.130383
0.130053
0.129664
0.129199
0.128634
0.127992
0.1273
0.12657
0.125809
0.125057
0.12434
0.123663
0.123036
0.12244
0.121859
0.121306
0.120787
0.120296
0.119832
0.119394
0.118978
0.118585
0.118213
0.11786
0.117524
0.117201
0.116892
0.116605
0.116282
0.133702
0.133743
0.133743
0.133697
0.133609
0.133484
0.133324
0.133133
0.132907
0.132663
0.13241
0.132161
0.13191
0.131638
0.131323
0.130956
0.130519
0.130029
0.129503
0.128953
0.12838
0.127815
0.127272
0.126757
0.126274
0.125815
0.125372
0.124952
0.124554
0.124178
0.123823
0.12349
0.123175
0.122878
0.122596
0.122327
0.122074
0.121834
0.121605
0.121393
0.121162
0.134602
0.134637
0.134637
0.134598
0.134524
0.134417
0.134282
0.134121
0.133933
0.133732
0.133522
0.133314
0.133103
0.132879
0.132621
0.132324
0.131977
0.131594
0.131187
0.130763
0.130322
0.129889
0.129471
0.129071
0.128695
0.12834
0.127996
0.12767
0.127361
0.127073
0.1268
0.126543
0.126303
0.126077
0.125861
0.125656
0.125463
0.125283
0.125113
0.124956
0.124789
0.135335
0.135365
0.135365
0.135332
0.135268
0.135176
0.13506
0.134923
0.134767
0.134599
0.134423
0.134245
0.134063
0.133873
0.133656
0.133415
0.133136
0.13283
0.132507
0.132174
0.13183
0.131488
0.131162
0.130849
0.130554
0.130274
0.130005
0.129752
0.129511
0.129284
0.129071
0.128872
0.128687
0.128513
0.128347
0.12819
0.128042
0.127903
0.127773
0.127654
0.127534
0.135942
0.135967
0.135968
0.135939
0.135883
0.135804
0.135704
0.135586
0.135451
0.135307
0.135156
0.135003
0.134847
0.134684
0.134502
0.134302
0.134073
0.133825
0.133567
0.133301
0.133027
0.132756
0.132497
0.132249
0.132015
0.131793
0.131579
0.131379
0.131191
0.131012
0.130844
0.130686
0.130539
0.130404
0.130275
0.130153
0.130039
0.129932
0.129831
0.129739
0.129648
0.136451
0.136474
0.136475
0.136449
0.1364
0.136331
0.136244
0.136141
0.136024
0.135899
0.135769
0.135636
0.135501
0.13536
0.135207
0.135039
0.134848
0.134644
0.134433
0.134217
0.133996
0.133779
0.133572
0.133372
0.133184
0.133006
0.132835
0.132676
0.132526
0.132384
0.13225
0.132124
0.132007
0.131898
0.131797
0.131702
0.131613
0.131529
0.131451
0.13138
0.131311
0.136884
0.136904
0.136905
0.136882
0.136839
0.136778
0.136702
0.136612
0.13651
0.136401
0.136287
0.136171
0.136053
0.135931
0.135799
0.135656
0.135496
0.135326
0.135152
0.134974
0.134793
0.134617
0.134448
0.134287
0.134134
0.13399
0.133852
0.133724
0.133603
0.133488
0.133381
0.13328
0.133187
0.133099
0.133019
0.132944
0.132874
0.132809
0.132748
0.132692
0.13264
0.137256
0.137274
0.137274
0.137254
0.137216
0.137162
0.137094
0.137015
0.136926
0.13683
0.13673
0.136628
0.136525
0.136418
0.136304
0.136181
0.136045
0.135904
0.135758
0.135611
0.135462
0.135317
0.135178
0.135045
0.134921
0.134803
0.134691
0.134586
0.134488
0.134396
0.134309
0.134228
0.134152
0.134082
0.134017
0.133957
0.133902
0.13385
0.133803
0.133759
0.133718
0.137577
0.137593
0.137594
0.137576
0.137542
0.137494
0.137434
0.137364
0.137285
0.137201
0.137112
0.137022
0.136931
0.136837
0.136738
0.136631
0.136517
0.136397
0.136274
0.13615
0.136027
0.135907
0.135792
0.135683
0.13558
0.135484
0.135392
0.135308
0.135227
0.135152
0.135081
0.135014
0.134953
0.134896
0.134843
0.134795
0.13475
0.134709
0.134671
0.134636
0.134604
0.137858
0.137872
0.137873
0.137857
0.137827
0.137784
0.13773
0.137668
0.137598
0.137523
0.137445
0.137365
0.137284
0.137201
0.137114
0.137022
0.136924
0.136821
0.136717
0.136612
0.136509
0.136408
0.136312
0.136221
0.136136
0.136056
0.135981
0.135911
0.135845
0.135782
0.135724
0.13567
0.13562
0.135573
0.13553
0.13549
0.135454
0.135421
0.135391
0.135363
0.135338
0.138104
0.138117
0.138118
0.138104
0.138076
0.138038
0.13799
0.137934
0.137872
0.137805
0.137736
0.137665
0.137593
0.13752
0.137442
0.137362
0.137277
0.137189
0.1371
0.137011
0.136924
0.136839
0.136759
0.136682
0.136612
0.136546
0.136483
0.136425
0.136369
0.136318
0.136269
0.136224
0.136183
0.136144
0.136109
0.136077
0.136047
0.13602
0.135996
0.135973
0.135954
0.138322
0.138333
0.138334
0.138321
0.138297
0.138262
0.138219
0.138169
0.138114
0.138054
0.137992
0.137929
0.137865
0.137799
0.137731
0.137661
0.137587
0.13751
0.137434
0.137359
0.137284
0.137213
0.137145
0.137081
0.137022
0.136966
0.136913
0.136863
0.136817
0.136773
0.136733
0.136696
0.136662
0.136631
0.136602
0.136575
0.136551
0.136529
0.13651
0.136492
0.136476
0.138515
0.138525
0.138526
0.138514
0.138492
0.138461
0.138422
0.138378
0.138328
0.138275
0.138219
0.138162
0.138105
0.138047
0.137986
0.137924
0.137859
0.137794
0.137728
0.137663
0.1376
0.137539
0.137482
0.137428
0.137378
0.137331
0.137287
0.137245
0.137205
0.137169
0.137136
0.137105
0.137076
0.13705
0.137026
0.137004
0.136984
0.136966
0.13695
0.136935
0.136923
0.138686
0.138696
0.138696
0.138686
0.138666
0.138638
0.138603
0.138563
0.138518
0.138471
0.138421
0.13837
0.138319
0.138267
0.138213
0.138158
0.138102
0.138044
0.137987
0.137932
0.137878
0.137826
0.137777
0.137733
0.13769
0.13765
0.137612
0.137577
0.137543
0.137513
0.137485
0.137459
0.137435
0.137413
0.137393
0.137375
0.137358
0.137343
0.137329
0.137317
0.137308
0.13884
0.138849
0.138849
0.13884
0.138822
0.138797
0.138765
0.138729
0.138689
0.138646
0.138601
0.138556
0.13851
0.138463
0.138415
0.138367
0.138317
0.138267
0.138217
0.13817
0.138124
0.13808
0.138039
0.138001
0.137964
0.13793
0.137897
0.137866
0.137838
0.137812
0.137788
0.137766
0.137745
0.137727
0.13771
0.137695
0.137681
0.137668
0.137657
0.137647
0.137639
0.138978
0.138986
0.138986
0.138978
0.138962
0.138939
0.13891
0.138878
0.138842
0.138803
0.138763
0.138722
0.138681
0.138639
0.138596
0.138553
0.138509
0.138465
0.138423
0.138382
0.138342
0.138305
0.138269
0.138235
0.138204
0.138174
0.138145
0.138119
0.138095
0.138073
0.138052
0.138033
0.138016
0.138
0.137986
0.137973
0.137961
0.137951
0.137941
0.137933
0.137927
0.139102
0.139109
0.13911
0.139102
0.139087
0.139067
0.139041
0.139012
0.138979
0.138945
0.138909
0.138872
0.138835
0.138797
0.138759
0.138721
0.138682
0.138643
0.138606
0.13857
0.138535
0.138502
0.138471
0.138442
0.138415
0.138389
0.138364
0.138342
0.138321
0.138302
0.138285
0.138268
0.138254
0.13824
0.138228
0.138217
0.138207
0.138198
0.138191
0.138184
0.138179
0.139214
0.139221
0.139221
0.139214
0.139201
0.139182
0.139159
0.139133
0.139103
0.139072
0.13904
0.139007
0.138974
0.13894
0.138906
0.138872
0.138837
0.138803
0.13877
0.138739
0.138708
0.13868
0.138652
0.138627
0.138603
0.138581
0.13856
0.13854
0.138522
0.138506
0.138491
0.138477
0.138465
0.138453
0.138443
0.138434
0.138425
0.138418
0.138411
0.138406
0.138401
0.139315
0.139321
0.139322
0.139316
0.139304
0.139287
0.139266
0.139242
0.139216
0.139188
0.139159
0.139129
0.139099
0.139069
0.139039
0.139008
0.138978
0.138948
0.138919
0.138891
0.138864
0.138839
0.138815
0.138793
0.138772
0.138753
0.138735
0.138718
0.138703
0.138689
0.138676
0.138664
0.138653
0.138643
0.138634
0.138626
0.138619
0.138613
0.138607
0.138602
0.138599
0.139407
0.139413
0.139413
0.139408
0.139397
0.139382
0.139363
0.139342
0.139318
0.139293
0.139267
0.13924
0.139213
0.139186
0.139159
0.139132
0.139105
0.139079
0.139053
0.139028
0.139005
0.138983
0.138962
0.138943
0.138925
0.138908
0.138892
0.138878
0.138864
0.138852
0.138841
0.13883
0.138821
0.138813
0.138805
0.138798
0.138792
0.138787
0.138782
0.138778
0.138775
0.139491
0.139496
0.139496
0.139491
0.139482
0.139468
0.139451
0.139432
0.139411
0.139388
0.139365
0.139341
0.139317
0.139293
0.139269
0.139245
0.139221
0.139197
0.139175
0.139153
0.139133
0.139113
0.139095
0.139078
0.139063
0.139048
0.139034
0.139022
0.13901
0.138999
0.138989
0.13898
0.138972
0.138965
0.138958
0.138952
0.138947
0.138943
0.138938
0.138935
0.138932
0.139567
0.139572
0.139572
0.139568
0.139559
0.139547
0.139532
0.139515
0.139496
0.139476
0.139455
0.139434
0.139412
0.139391
0.139369
0.139348
0.139327
0.139306
0.139286
0.139267
0.139249
0.139232
0.139216
0.139202
0.139188
0.139175
0.139163
0.139152
0.139141
0.139132
0.139124
0.139116
0.139109
0.139102
0.139097
0.139091
0.139087
0.139083
0.139079
0.139076
0.139074
0.139636
0.139641
0.139641
0.139637
0.139629
0.139618
0.139605
0.13959
0.139573
0.139555
0.139537
0.139518
0.139499
0.13948
0.139461
0.139442
0.139423
0.139405
0.139388
0.139371
0.139355
0.13934
0.139326
0.139313
0.139301
0.13929
0.139279
0.13927
0.139261
0.139253
0.139245
0.139238
0.139232
0.139227
0.139222
0.139217
0.139213
0.13921
0.139207
0.139204
0.139202
0.1397
0.139703
0.139704
0.1397
0.139693
0.139684
0.139672
0.139659
0.139644
0.139629
0.139612
0.139596
0.139579
0.139562
0.139545
0.139529
0.139512
0.139496
0.139481
0.139466
0.139453
0.139439
0.139427
0.139416
0.139405
0.139396
0.139386
0.139378
0.13937
0.139363
0.139356
0.13935
0.139345
0.13934
0.139336
0.139332
0.139328
0.139325
0.139322
0.13932
0.139318
0.139758
0.139761
0.139761
0.139758
0.139752
0.139744
0.139734
0.139722
0.13971
0.139696
0.139682
0.139667
0.139653
0.139638
0.139623
0.139609
0.139595
0.139581
0.139567
0.139554
0.139542
0.139531
0.13952
0.13951
0.139501
0.139492
0.139484
0.139477
0.13947
0.139464
0.139458
0.139453
0.139448
0.139443
0.13944
0.139436
0.139433
0.13943
0.139428
0.139426
0.139424
0.139811
0.139814
0.139814
0.139811
0.139806
0.139799
0.139791
0.139781
0.13977
0.139758
0.139746
0.139734
0.139721
0.139709
0.139696
0.139683
0.139671
0.139659
0.139647
0.139636
0.139626
0.139616
0.139607
0.139598
0.13959
0.139582
0.139575
0.139569
0.139563
0.139557
0.139552
0.139547
0.139543
0.139539
0.139536
0.139533
0.13953
0.139527
0.139525
0.139523
0.139522
0.139859
0.139862
0.139862
0.13986
0.139855
0.13985
0.139843
0.139835
0.139826
0.139817
0.139807
0.139796
0.139786
0.139775
0.139764
0.139754
0.139743
0.139733
0.139723
0.139714
0.139705
0.139696
0.139688
0.139681
0.139674
0.139667
0.139661
0.139655
0.13965
0.139645
0.13964
0.139636
0.139632
0.139629
0.139626
0.139623
0.139621
0.139618
0.139616
0.139615
0.139613
0.139904
0.139906
0.139906
0.139904
0.139901
0.139897
0.139891
0.139885
0.139879
0.139871
0.139864
0.139855
0.139847
0.139839
0.13983
0.139821
0.139813
0.139805
0.139796
0.139789
0.139781
0.139774
0.139767
0.139761
0.139755
0.139749
0.139744
0.139739
0.139734
0.13973
0.139726
0.139722
0.139719
0.139716
0.139713
0.139711
0.139708
0.139706
0.139705
0.139703
0.139701
0.139945
0.139946
0.139946
0.139945
0.139943
0.13994
0.139937
0.139933
0.139928
0.139924
0.139918
0.139913
0.139907
0.139902
0.139896
0.139889
0.139883
0.139877
0.139871
0.139865
0.13986
0.139854
0.139849
0.139844
0.139839
0.139835
0.13983
0.139826
0.139823
0.139819
0.139816
0.139812
0.13981
0.139807
0.139804
0.139802
0.1398
0.139798
0.139797
0.139795
0.139794
0.139983
0.139983
0.139983
0.139983
0.139982
0.139981
0.13998
0.139978
0.139977
0.139975
0.139973
0.139971
0.139969
0.139967
0.139964
0.139962
0.13996
0.139957
0.139954
0.139952
0.139949
0.139947
0.139944
0.139942
0.139939
0.139937
0.139934
0.139932
0.13993
0.139927
0.139925
0.139923
0.139921
0.139919
0.139917
0.139915
0.139913
0.139912
0.13991
0.139909
0.139907
0.00257726
0.00396149
0.00525964
0.00642506
0.00748061
0.00845432
0.00936775
0.0102375
0.0110767
0.0118963
0.0127054
0.0135119
0.0143228
0.0151441
0.0159814
0.0168393
0.0177221
0.0186333
0.0195756
0.0205513
0.0215621
0.0226088
0.0236919
0.0248113
0.0259664
0.0271564
0.0283799
0.0296353
0.0309208
0.0322346
0.0335745
0.0349384
0.0363242
0.0377296
0.0391525
0.0405908
0.0420424
0.0435054
0.0449778
0.0464577
0.0479435
0.0494334
0.0509259
0.0524194
0.0539127
0.0554043
0.0568929
0.0583776
0.0598571
0.0613304
0.0627966
0.0642549
0.0657043
0.0671443
0.068574
0.0699927
0.0713997
0.072794
0.0741751
0.0755431
0.0768991
0.0782458
0.0795874
0.0809292
0.0822774
0.0836375
0.0850136
0.0864077
0.0878181
0.0892447
0.0906655
0.0921452
0.0933631
0.0956609
0.00397968
0.00516758
0.00625844
0.00725781
0.00818981
0.00907301
0.00991921
0.0107383
0.0115391
0.0123296
0.0131168
0.013907
0.014706
0.0155191
0.0163509
0.0172056
0.0180869
0.0189978
0.0199407
0.0209177
0.0219299
0.0229783
0.0240631
0.0251841
0.0263406
0.0275317
0.028756
0.030012
0.0312979
0.0326118
0.0339517
0.0353155
0.0367009
0.038106
0.0395286
0.0409665
0.0424178
0.0438805
0.0453528
0.0468327
0.0483185
0.0498087
0.0513016
0.0527957
0.0542897
0.0557823
0.0572722
0.0587582
0.0602393
0.0617145
0.0631828
0.0646433
0.0660953
0.067538
0.0689707
0.0703926
0.071803
0.0732011
0.0745863
0.0759585
0.0773188
0.0786695
0.0800144
0.0813587
0.082708
0.0840678
0.0854423
0.0868334
0.0882399
0.0896621
0.0910786
0.0925539
0.0937698
0.0960618
0.00566387
0.00672278
0.00770177
0.00858833
0.00941052
0.0101962
0.0109606
0.0117132
0.0124612
0.0132107
0.0139669
0.0147345
0.0155178
0.0163209
0.0171474
0.0180004
0.0188826
0.0197963
0.0207434
0.0217252
0.0227425
0.0237958
0.0248851
0.0260099
0.0271695
0.0283629
0.0295887
0.0308454
0.0321314
0.0334446
0.0347834
0.0361455
0.037529
0.0389319
0.0403522
0.0417877
0.0432367
0.0446971
0.0461672
0.0476452
0.0491294
0.0506181
0.05211
0.0536034
0.0550971
0.0565897
0.0580801
0.059567
0.0610494
0.0625264
0.0639969
0.0654601
0.0669152
0.0683615
0.0697982
0.0712247
0.0726401
0.0740437
0.075435
0.0768136
0.0781804
0.0795371
0.0808872
0.082235
0.0835857
0.0849444
0.086315
0.0876999
0.0890983
0.0905111
0.091918
0.0933832
0.0945932
0.0968709
0.00759649
0.00848442
0.00933612
0.0101286
0.0108748
0.0115963
0.0123069
0.0130154
0.0137288
0.0144528
0.0151919
0.0159498
0.0167299
0.0175351
0.0183678
0.0192303
0.0201244
0.0210513
0.022012
0.0230074
0.0240376
0.0251026
0.0262021
0.0273355
0.028502
0.0297004
0.0309295
0.0321878
0.0334739
0.0347859
0.0361222
0.037481
0.0388603
0.0402584
0.0416734
0.0431034
0.0445467
0.0460014
0.0474659
0.0489385
0.0504175
0.0519015
0.0533889
0.0548785
0.0563687
0.0578585
0.0593465
0.0608318
0.0623131
0.0637896
0.0652602
0.0667242
0.0681807
0.069629
0.0710683
0.0724981
0.0739175
0.0753258
0.0767223
0.0781068
0.0794796
0.080842
0.0821966
0.083547
0.0848975
0.0862527
0.0876163
0.0889907
0.0903757
0.091773
0.0931637
0.0946111
0.0958092
0.09806
0.00962052
0.0103729
0.0111145
0.0118236
0.0125071
0.0131828
0.013862
0.0145512
0.0152558
0.0159798
0.0167264
0.0174984
0.0182978
0.0191264
0.0199855
0.0208762
0.0217991
0.0227548
0.0237435
0.0247651
0.0258194
0.0269059
0.0280241
0.0291731
0.0303521
0.03156
0.0327956
0.0340578
0.0353451
0.0366561
0.0379894
0.0393434
0.0407165
0.0421072
0.0435138
0.0449347
0.0463683
0.0478131
0.0492676
0.0507301
0.0521992
0.0536736
0.0551518
0.0566326
0.0581146
0.0595966
0.0610776
0.0625565
0.0640321
0.0655036
0.06697
0.0684305
0.0698842
0.0713303
0.0727683
0.0741974
0.0756169
0.077026
0.0784242
0.0798108
0.0811861
0.0825507
0.0839064
0.0852559
0.0866026
0.0879503
0.0893022
0.0906609
0.0920263
0.093401
0.0947677
0.0961884
0.0973669
0.0995748
0.0116915
0.0123629
0.0130434
0.0137103
0.0143649
0.015022
0.0156931
0.0163845
0.0171006
0.0178444
0.0186181
0.0194228
0.0202594
0.0211282
0.0220293
0.0229626
0.0239277
0.0249241
0.0259513
0.0270087
0.0280954
0.0292106
0.0303536
0.0315235
0.0327193
0.03394
0.0351846
0.0364522
0.0377415
0.0390515
0.0403809
0.0417286
0.0430933
0.0444737
0.0458685
0.0472764
0.048696
0.0501261
0.0515653
0.0530124
0.0544659
0.0559248
0.0573877
0.0588534
0.0603208
0.0617888
0.0632563
0.0647222
0.0661856
0.0676456
0.0691012
0.0705516
0.0719959
0.0734335
0.0748636
0.0762855
0.0776985
0.0791019
0.080495
0.0818773
0.0832484
0.0846088
0.0859594
0.0873019
0.088639
0.0899733
0.0913076
0.0926441
0.0939832
0.0953277
0.0966621
0.0980466
0.099197
0.101345
0.0139251
0.0145765
0.0152562
0.015938
0.0166166
0.0173015
0.0180031
0.0187273
0.0194781
0.0202587
0.021071
0.0219159
0.0227937
0.0237042
0.0246468
0.0256207
0.026625
0.0276585
0.0287204
0.0298093
0.0309243
0.0320643
0.0332283
0.0344152
0.0356241
0.0368542
0.0381044
0.0393738
0.0406616
0.0419667
0.0432884
0.0446256
0.0459774
0.0473427
0.0487206
0.0501101
0.05151
0.0529193
0.0543369
0.0557617
0.0571927
0.0586288
0.0600689
0.061512
0.062957
0.064403
0.0658488
0.0672937
0.0687366
0.0701767
0.0716131
0.0730449
0.0744713
0.0758917
0.0773052
0.0787112
0.0801089
0.0814976
0.0828768
0.0842456
0.0856037
0.0869509
0.0882877
0.089615
0.0909344
0.0922478
0.0935572
0.0948645
0.09617
0.0974769
0.0987709
0.10011
0.101224
0.103295
0.01663
0.0173234
0.018064
0.0188176
0.0195723
0.0203312
0.021102
0.0218895
0.0226972
0.023528
0.0243842
0.0252671
0.0261776
0.0271162
0.0280828
0.029077
0.0300984
0.0311461
0.0322193
0.033317
0.0344382
0.0355818
0.0367468
0.0379322
0.039137
0.0403604
0.0416013
0.042859
0.0441325
0.0454211
0.0467239
0.0480401
0.0493689
0.0507095
0.0520611
0.0534227
0.0547937
0.056173
0.0575598
0.0589533
0.0603524
0.0617564
0.0631643
0.0645752
0.0659881
0.0674022
0.0688166
0.0702305
0.0716428
0.0730529
0.0744598
0.0758628
0.077261
0.0786537
0.0800402
0.0814197
0.0827916
0.0841551
0.0855094
0.086854
0.0881882
0.0895117
0.0908243
0.0921264
0.0934187
0.0947025
0.095979
0.0972494
0.0985142
0.0997762
0.101023
0.102309
0.103379
0.105359
0.020292
0.0210744
0.0219183
0.0227775
0.0236344
0.0244868
0.0253397
0.0261976
0.0270635
0.0279405
0.0288314
0.0297383
0.0306631
0.0316071
0.0325713
0.0335565
0.0345632
0.0355916
0.0366417
0.0377132
0.0388057
0.0399187
0.0410515
0.0422035
0.0433738
0.0445616
0.0457661
0.0469865
0.0482219
0.0494716
0.0507346
0.0520103
0.0532978
0.0545963
0.0559051
0.0572235
0.0585506
0.0598856
0.0612278
0.0625764
0.0639306
0.0652896
0.0666526
0.0680187
0.0693872
0.0707573
0.072128
0.0734986
0.0748683
0.0762363
0.0776017
0.0789638
0.0803218
0.081675
0.0830225
0.0843636
0.0856977
0.0870239
0.0883416
0.08965
0.0909485
0.0922365
0.0935135
0.0947795
0.0960346
0.0972793
0.0985142
0.0997402
0.100957
0.102168
0.103361
0.104587
0.105609
0.107487
0.0255184
0.0263579
0.0272806
0.0282192
0.0291507
0.0300684
0.0309748
0.0318739
0.032769
0.0336635
0.0345609
0.0354639
0.036375
0.0372963
0.0382296
0.0391764
0.0401382
0.0411159
0.0421104
0.0431222
0.0441518
0.0451994
0.0462649
0.0473483
0.0484492
0.0495672
0.0507019
0.0518525
0.0530184
0.054199
0.0553935
0.0566011
0.0578211
0.0590528
0.0602952
0.0615478
0.0628096
0.0640799
0.0653579
0.0666429
0.0679341
0.0692308
0.070532
0.0718371
0.0731453
0.0744557
0.0757676
0.0770802
0.0783926
0.0797041
0.081014
0.0823213
0.0836254
0.0849254
0.0862205
0.0875101
0.0887933
0.0900694
0.0913376
0.0925973
0.0938475
0.0950878
0.0963174
0.097536
0.0987432
0.0999391
0.101124
0.102297
0.10346
0.104614
0.105748
0.10691
0.107879
0.109649
0.0328264
0.0335548
0.0344238
0.0353391
0.0362604
0.0371712
0.0380682
0.0389531
0.0398284
0.0406967
0.0415612
0.0424246
0.0432895
0.0441584
0.0450333
0.0459159
0.0468079
0.0477107
0.0486255
0.0495532
0.050495
0.0514514
0.0524231
0.0534104
0.0544136
0.0554327
0.0564678
0.0575186
0.0585849
0.0596663
0.0607624
0.0618726
0.0629962
0.0641328
0.0652814
0.0664415
0.0676123
0.0687931
0.069983
0.0711813
0.0723872
0.0736
0.0748187
0.0760427
0.0772711
0.0785031
0.079738
0.0809748
0.0822128
0.0834512
0.0846891
0.0859257
0.0871603
0.088392
0.08962
0.0908435
0.0920618
0.093274
0.0944793
0.0956769
0.0968662
0.0980462
0.0992164
0.100376
0.101525
0.102662
0.103787
0.104901
0.106002
0.107093
0.108164
0.109258
0.110172
0.11183
0.0421391
0.0426654
0.0433072
0.0440549
0.0448545
0.0456695
0.0464856
0.0472972
0.048102
0.0488999
0.0496924
0.0504819
0.0512706
0.0520603
0.0528527
0.0536492
0.0544514
0.0552606
0.0560783
0.0569056
0.0577436
0.058593
0.0594546
0.0603292
0.0612171
0.062119
0.0630351
0.0639657
0.064911
0.0658711
0.0668457
0.0678347
0.0688377
0.0698545
0.0708845
0.0719272
0.0729822
0.0740487
0.0751262
0.0762139
0.0773111
0.078417
0.0795308
0.0806518
0.0817792
0.0829121
0.0840497
0.0851912
0.0863357
0.0874824
0.0886304
0.0897789
0.0909271
0.092074
0.0932189
0.0943609
0.0954992
0.0966329
0.0977612
0.0988832
0.0999982
0.101105
0.102204
0.103293
0.104372
0.10544
0.106497
0.107543
0.108576
0.109598
0.110601
0.111623
0.112478
0.114022
0.0529277
0.0533105
0.0537566
0.0542209
0.0547356
0.0553458
0.0560103
0.0566904
0.0573736
0.0580583
0.0587445
0.0594318
0.0601193
0.0608069
0.0614956
0.0621869
0.0628823
0.0635832
0.0642908
0.0650058
0.0657291
0.0664612
0.067203
0.0679552
0.0687185
0.0694936
0.0702811
0.0710814
0.0718948
0.0727216
0.0735619
0.0744158
0.0752833
0.0761644
0.0770591
0.077967
0.078888
0.0798216
0.0807674
0.0817248
0.0826933
0.0836723
0.0846611
0.0856591
0.0866655
0.0876796
0.0887005
0.0897275
0.0907597
0.0917962
0.0928363
0.093879
0.0949236
0.095969
0.0970145
0.0980592
0.0991022
0.100143
0.101179
0.102212
0.103239
0.104261
0.105275
0.106282
0.10728
0.108269
0.109248
0.110217
0.111174
0.112121
0.113049
0.113996
0.114788
0.116212
0.064774
0.0650037
0.0652874
0.0655832
0.0658901
0.0662143
0.0665599
0.0669487
0.06742
0.0679469
0.0684964
0.0690504
0.0696047
0.0701618
0.0707244
0.0712936
0.0718694
0.0724513
0.0730389
0.073632
0.0742314
0.074838
0.0754528
0.0760769
0.076711
0.0773557
0.0780111
0.0786777
0.0793556
0.0800452
0.0807467
0.0814606
0.0821872
0.0829266
0.083679
0.0844444
0.0852227
0.0860137
0.0868172
0.0876328
0.0884603
0.0892994
0.0901496
0.0910103
0.0918812
0.0927614
0.0936504
0.0945473
0.0954516
0.0963624
0.0972789
0.0982003
0.0991259
0.100055
0.100986
0.101919
0.102852
0.103785
0.104717
0.105647
0.106574
0.107497
0.108415
0.109328
0.110235
0.111135
0.112026
0.112909
0.113782
0.114646
0.115494
0.116357
0.117082
0.118381
0.0771415
0.077222
0.0773471
0.0774811
0.0776223
0.0777752
0.0779439
0.0781318
0.078342
0.078576
0.078834
0.0791176
0.0794544
0.0798468
0.0802716
0.0807113
0.0811568
0.0816044
0.082055
0.082512
0.0829779
0.083454
0.0839403
0.0844366
0.0849423
0.0854571
0.0859806
0.0865134
0.0870559
0.087609
0.0881731
0.0887489
0.0893366
0.0899362
0.0905479
0.0911715
0.091807
0.0924545
0.0931138
0.0937852
0.0944685
0.0951635
0.0958701
0.096588
0.0973166
0.0980555
0.0988042
0.0995623
0.100329
0.101104
0.101887
0.102677
0.103472
0.104274
0.105079
0.105889
0.106701
0.107516
0.108331
0.109147
0.109963
0.110778
0.11159
0.112399
0.113204
0.114005
0.1148
0.115588
0.116369
0.117143
0.117903
0.118678
0.119331
0.120496
0.0893044
0.0892611
0.0892504
0.0892457
0.0892452
0.0892526
0.0892718
0.089306
0.0893578
0.0894288
0.0895197
0.089631
0.0897631
0.0899166
0.0900916
0.0902875
0.0905034
0.0907398
0.0910129
0.091326
0.091666