/*--------------------------------*- C++ -*----------------------------------*\
  =========                 |
  \\      /  F ield         | OpenFOAM: The Open Source CFD Toolbox
   \\    /   O peration     | Website:  https://openfoam.org
    \\  /    A nd           | Version:  11
     \\/     M anipulation  |
\*---------------------------------------------------------------------------*/
FoamFile
{
    format      ascii;
    class       volScalarField;
    location    "250";
    object      p;
}
// * * * * * * * * * * * * * * * * * * * * * * * * * * * * * * * * * * * * * //

dimensions      [0 2 -2 0 0 0 0];

internalField   nonuniform List<scalar> 
11040
(
376.433
356.388
309.014
237.115
153.087
46.2131
-61.232
-135.953
-127.897
-118.567
-147.084
-204.911
-338.818
-506.955
-652.733
-665.286
-592.264
-386.139
-254.324
-206.473
-180.499
-156.098
-135.735
-120.368
-109.183
-102.767
-90.3754
-67.7565
-53.6364
-43.2729
-33.0265
-22.8977
-13.2361
-3.90164
5.36647
14.7561
24.3761
34.6129
45.2874
58.404
69.2474
369.265
349.81
307.429
244.88
169.683
77.3194
-16.9644
-86.1309
-103.703
-109.229
-141.358
-199.479
-317.433
-463.085
-590.184
-613.33
-566.667
-394.972
-264.967
-211.507
-183.034
-157.989
-137.198
-121.433
-109.788
-102.651
-90.466
-68.8554
-54.5199
-43.9467
-33.6424
-23.4772
-13.7758
-4.41052
4.87412
14.2702
23.8832
34.1058
44.6944
57.842
68.0979
357.144
339.064
301.277
245.904
177.549
95.3743
9.53735
-59.6721
-94.071
-109.013
-139.787
-194.752
-296.772
-423.951
-539.664
-574.039
-542.767
-401.559
-273.325
-214.055
-184.16
-159.162
-138.149
-122.049
-109.969
-102.124
-90.3537
-69.8866
-55.1393
-44.3368
-34.0335
-23.8636
-14.1383
-4.75814
4.52718
13.9153
23.5058
33.6902
44.1687
57.2108
66.8317
341.42
324.662
291.113
242.763
182.266
110.435
34.0759
-31.8207
-76.1439
-100.371
-132.596
-185.845
-274.632
-384.389
-488.236
-532.085
-516.648
-403.107
-281.37
-217.429
-185.682
-160.58
-139.288
-122.784
-110.231
-101.576
-90.1189
-70.9218
-55.8939
-44.8607
-34.5591
-24.3865
-14.6359
-5.24221
4.03763
13.4061
22.9556
33.0676
43.3934
56.1571
65.1408
322.389
306.919
277.505
235.944
183.527
121.598
54.7594
-5.9778
-55.7848
-89.3522
-124.248
-175.269
-251.673
-344.427
-434.879
-483.396
-483.466
-399.434
-289.535
-222.054
-187.566
-162.153
-140.617
-123.64
-110.546
-100.982
-89.7145
-71.9626
-56.862
-45.5425
-35.2136
-25.0509
-15.2837
-5.88439
3.37503
12.6991
22.1725
32.1507
42.249
54.5075
62.8243
300.412
286.237
260.78
225.548
181.024
128.478
70.9567
16.369
-34.6513
-75.0465
-112.73
-161.365
-226.947
-304.398
-381.729
-431.983
-445.144
-389.897
-295.979
-227.152
-189.576
-163.714
-142.057
-124.602
-110.923
-100.423
-89.1947
-72.934
-57.9958
-46.376
-35.9976
-25.8692
-16.1054
-6.71482
2.50208
11.7471
21.0968
30.8627
40.643
52.1593
59.8703
276.071
263.187
241.411
211.917
174.758
130.871
82.2165
34.3379
-14.398
-58.1972
-98.1342
-144.498
-200.892
-265.101
-330.171
-379.447
-402.324
-372.871
-298.536
-232.04
-191.749
-165.193
-143.506
-125.623
-111.344
-99.9604
-88.6344
-73.7551
-59.2345
-47.382
-36.9355
-26.8635
-17.1348
-7.77863
1.36438
10.4841
19.6481
29.1063
38.4663
49.0293
56.2224
250.065
238.449
220.008
195.592
165.041
128.929
88.4789
47.4533
3.34755
-40.3553
-81.0738
-125.028
-173.736
-226.909
-281.08
-327.062
-355.76
-347.574
-295.022
-235.397
-193.801
-166.423
-144.783
-126.616
-111.781
-99.6222
-88.1007
-74.3717
-60.4805
-48.5391
-38.0267
-28.0325
-18.385
-9.10441
-0.0780609
8.85824
17.7618
26.8088
35.6445
45.1145
51.8282
223.163
212.767
197.278
177.254
152.429
123.1
90.0052
55.6165
17.3782
-23.3321
-62.7895
-103.831
-146.105
-190.311
-235.226
-276.506
-307.399
-314.742
-283.642
-235.207
-194.921
-167.075
-145.601
-127.397
-112.154
-99.3769
-87.6291
-74.7774
-61.6375
-49.7998
-39.2654
-29.3694
-19.8534
-10.7036
-1.84908
6.83676
15.3992
23.9404
32.1628
40.5079
46.7021
196.142
186.901
173.972
157.667
137.67
114.102
87.4028
59.156
27.1287
-8.70757
-44.9213
-82.2434
-118.93
-155.892
-193.162
-229.183
-259.461
-276.313
-263.682
-229.296
-193.742
-166.577
-145.556
-127.645
-112.267
-99.1019
-87.185
-74.982
-62.6223
-51.0902
-40.6349
-30.8753
-21.5471
-12.5964
-3.97963
4.38747
12.5341
20.4993
28.0473
35.3391
40.9405
169.74
161.579
150.839
137.629
121.614
102.829
81.5408
58.7467
32.6532
2.51746
-29.0484
-61.82
-93.3616
-124.336
-155.291
-186.064
-213.906
-235.044
-236.046
-216.136
-188.489
-163.943
-144.05
-126.891
-111.796
-98.5722
-86.645
-74.9611
-63.3504
-52.2965
-42.0747
-32.5318
-23.4642
-14.7953
-6.49429
1.48365
9.14789
16.4943
23.3423
29.7098
34.6955
144.614
137.458
128.568
117.902
105.124
90.2405
73.4224
55.2958
34.4978
10.0553
-16.245
-43.9338
-70.5364
-96.3425
-121.966
-147.793
-172.253
-193.909
-203.202
-195.675
-177.63
-157.858
-140.233
-124.488
-110.237
-97.412
-85.7566
-74.6056
-63.722
-53.2785
-43.4679
-34.2666
-25.5561
-17.2662
-9.37349
-1.86151
5.26206
11.9713
18.132
23.7154
28.1418
121.301
115.078
107.746
99.1566
88.9868
77.2444
64.0514
49.8018
33.5031
14.2229
-6.89105
-29.4324
-51.2924
-72.4776
-93.4708
-114.762
-135.498
-155.423
-168.429
-169.629
-160.775
-147.21
-133.136
-119.654
-106.927
-95.0764
-84.1062
-73.6646
-63.5672
-53.8553
-44.6367
-35.9372
-27.7092
-19.9097
-12.5248
-5.5549
0.981593
7.05286
12.564
17.4876
21.4512
100.182
94.8249
88.8075
81.91
73.8346
64.6038
54.3124
43.2104
30.6
15.7069
-0.756505
-18.5192
-35.9791
-53.004
-69.9084
-87.1101
-104.152
-121.277
-134.822
-140.905
-139.14
-131.832
-122.134
-111.7
-101.183
-90.9261
-81.1426
-71.7276
-62.5918
-53.7674
-45.3268
-37.3101
-29.7153
-22.5306
-15.7559
-9.40161
-3.48966
1.95111
6.85866
11.2188
14.8023
81.4758
76.9234
72.0152
66.4974
60.1039
52.8734
44.8841
36.2962
26.633
15.3049
2.74817
-10.88
-24.4536
-37.8088
-51.1286
-64.7168
-78.3123
-92.3192
-104.611
-112.537
-115.129
-112.854
-107.468
-100.441
-92.6032
-84.448
-76.3271
-68.3111
-60.4003
-52.6713
-45.208
-38.0645
-31.2668
-24.8297
-18.7681
-13.0996
-7.84627
-3.03105
1.30835
5.16831
8.41585
65.3282
61.5159
57.5386
53.138
48.0882
42.4403
36.2595
29.6488
22.2915
13.7647
4.33716
-5.90703
-16.2162
-26.4482
-36.7041
-47.1844
-57.73
-68.7382
-78.999
-86.8391
-91.3871
-92.3319
-90.3724
-86.4793
-81.3651
-75.5272
-69.3618
-63.0359
-56.6055
-50.1906
-43.9029
-37.816
-31.9764
-26.4185
-21.1707
-16.2573
-11.7005
-7.51901
-3.73544
-0.348937
2.56715
51.8148
48.6731
45.4774
41.9789
38.0001
33.5996
28.8301
23.7574
18.1753
11.7955
4.78573
-2.8105
-10.5067
-18.1967
-25.9346
-33.8442
-41.8279
-50.2073
-58.304
-65.1053
-69.9967
-72.4929
-72.722
-71.1991
-68.3975
-64.7078
-60.4843
-55.9181
-51.0816
-46.1097
-41.1299
-36.2296
-31.4685
-26.8933
-22.5418
-18.4435
-14.6216
-11.0934
-7.87438
-4.96387
-2.40166
41.2238
38.6229
36.06
33.2602
30.0953
26.6314
22.9088
18.9712
14.6828
9.85121
4.58502
-1.09299
-6.86663
-12.6612
-18.5042
-24.467
-30.4808
-36.7808
-42.9864
-48.4863
-52.8844
-55.7563
-57.0168
-56.9029
-55.6814
-53.6104
-50.9612
-47.902
-44.4953
-40.863
-37.1271
-33.3755
-29.6712
-26.0646
-22.5966
-19.2992
-16.1966
-13.3061
-10.641
-8.20381
-6.0172
33.1732
30.999
28.9196
26.6447
24.0859
21.3113
18.3522
15.2379
11.8777
8.14164
4.10403
-0.221733
-4.62415
-9.05074
-13.5152
-18.0588
-22.6335
-27.4021
-32.1406
-36.4721
-40.1457
-42.8392
-44.4202
-44.9894
-44.6848
-43.6619
-42.1113
-40.1644
-37.8657
-35.3129
-32.6091
-29.832
-27.0396
-24.2794
-21.5908
-19.0047
-16.5449
-14.2284
-12.0679
-10.0683
-8.24508
26.9996
25.1724
23.4669
21.5954
19.499
17.2439
14.8541
12.3503
9.67064
6.72646
3.57098
0.213265
-3.20115
-6.63475
-10.0937
-13.6015
-17.1225
-20.7692
-24.4041
-27.7866
-30.7561
-33.0788
-34.6332
-35.4601
-35.6281
-35.2271
-34.3861
-33.2013
-31.7004
-29.9561
-28.0496
-26.0443
-23.9892
-21.9251
-19.8865
-17.9011
-15.9905
-14.1708
-12.4537
-10.846
-9.35907
22.1884
20.6469
19.235
17.6797
15.9437
14.089
12.1342
10.0944
7.92709
5.57133
3.06648
0.419647
-2.26652
-4.96458
-7.67674
-10.4159
-13.1551
-15.9718
-18.778
-21.4157
-23.7806
-25.7048
-27.0917
-27.9577
-28.3368
-28.2807
-27.8752
-27.1886
-26.2368
-25.072
-23.7552
-22.3354
-20.8514
-19.3363
-17.8185
-16.3215
-14.8636
-13.4592
-12.1189
-10.8499
-9.66111
18.3896
17.0854
15.9077
14.6046
13.1547
11.6147
9.99919
8.31944
6.54631
4.63761
2.62327
0.509374
-1.63011
-3.77471
-5.92441
-8.08583
-10.2383
-12.435
-14.6173
-16.6792
-18.5512
-20.1129
-21.2923
-22.0965
-22.5428
-22.6615
-22.51
-22.1364
-21.5494
-20.7859
-19.8903
-18.8993
-17.8426
-16.7458
-15.6316
-14.5186
-13.422
-12.3539
-11.3235
-10.3377
-9.40359
15.3559
14.2499
13.261
12.1619
10.9423
9.65332
8.3066
6.91097
5.44639
3.88373
2.2462
0.539284
-1.18275
-2.90431
-4.62421
-6.34541
-8.05174
-9.77992
-11.4897
-13.108
-14.588
-15.8429
-16.8206
-17.525
-17.9655
-18.1607
-18.1498
-17.9666
-17.616
-17.1238
-16.522
-15.8377
-15.0928
-14.3069
-13.4973
-12.6787
-11.863
-11.0601
-10.2777
-9.52155
-8.79804
12.9099
11.9699
11.135
10.2025
9.17047
8.08417
6.95333
5.78499
4.56554
3.27492
1.93148
0.540216
-0.858418
-2.25235
-3.63982
-5.02166
-6.38515
-7.75563
-9.1047
-10.3813
-11.5531
-12.5572
-13.3566
-13.9542
-14.3558
-14.5736
-14.6348
-14.5636
-14.3628
-14.0506
-13.6501
-13.181
-12.6595
-12.1001
-11.516
-10.9183
-10.3164
-9.71794
-9.12915
-8.55497
-8.00075
10.921
10.1207
9.41212
8.61716
7.73917
6.8183
5.86272
4.8783
3.85595
2.782
1.67117
0.52804
-0.616839
-1.75398
-2.88142
-3.99877
-5.09599
-6.19062
-7.26218
-8.27438
-9.20483
-10.0075
-10.6564
-11.1544
-11.5054
-11.718
-11.8116
-11.8037
-11.6962
-11.502
-11.2379
-10.9182
-10.5548
-10.1584
-9.73885
-9.30462
-8.86284
-8.41947
-7.97938
-7.54654
-7.12558
9.29182
8.60948
8.00537
7.32465
6.57421
5.78951
4.97754
4.14337
3.28114
2.38168
1.45693
0.511111
-0.432463
-1.36626
-2.28827
-3.19752
-4.08606
-4.96602
-5.82242
-6.62922
-7.37068
-8.01298
-8.53807
-8.94881
-9.24831
-9.44287
-9.54658
-9.5725
-9.52196
-9.40434
-9.23187
-9.015
-8.7625
-8.48234
-8.18179
-7.86721
-7.54403
-7.21679
-6.8893
-6.56462
-6.2468
7.94872
7.36612
6.84897
6.26375
5.61962
4.94779
4.25443
3.544
2.81295
2.05533
1.2809
0.493533
-0.288813
-1.0601
-1.81842
-2.56251
-3.2861
-3.9976
-4.68594
-5.33224
-5.92544
-6.44051
-6.8651
-7.20205
-7.45396
-7.62572
-7.7278
-7.77001
-7.75347
-7.68511
-7.57393
-7.42762
-7.25267
-7.05499
-6.84001
-6.61249
-6.37652
-6.13556
-5.89256
-5.64985
-5.41093
6.83511
6.3371
5.89267
5.38772
4.83268
4.25501
3.66024
3.05242
2.42965
1.78823
1.13626
0.477225
-0.174912
-0.815282
-1.44214
-2.05417
-2.64642
-3.22473
-3.78087
-4.3011
-4.7776
-5.19183
-5.53543
-5.81117
-6.02132
-6.16977
-6.26446
-6.31285
-6.31598
-6.27902
-6.20867
-6.11067
-5.98983
-5.85057
-5.69695
-5.53253
-5.36041
-5.18321
-5.00321
-4.82214
-4.64305
5.90712
5.48101
5.09768
4.66048
4.18045
3.68172
3.16938
2.64715
2.1143
1.56875
1.01724
0.462923
-0.0832911
-0.617457
-1.13802
-1.64373
-2.13068
-2.60298
-3.05446
-3.47511
-3.85943
-4.19363
-4.47219
-4.69772
-4.87224
-4.99892
-5.08387
-5.13282
-5.14675
-5.1296
-5.08641
-5.02146
-4.9384
-4.84052
-4.73088
-4.61217
-4.48673
-4.35654
-4.22337
-4.08849
-3.95454
5.13037
4.76548
4.43369
4.05389
3.63726
3.20502
2.76193
2.31144
1.85367
1.38767
0.9191
0.450772
-0.00872736
-0.456202
-0.8903
-1.3099
-1.71194
-2.09933
-2.46747
-2.80906
-3.12027
-3.39083
-3.61721
-3.80182
-3.94646
-4.05376
-4.12846
-4.17502
-4.19436
-4.18953
-4.16433
-4.12202
-4.06535
-3.99683
-3.91876
-3.83317
-3.74185
-3.6463
-3.54789
-3.44754
-3.34753
4.47766
4.16498
3.87682
3.5458
3.18293
2.80691
2.42222
2.03213
1.63734
1.23769
0.837949
0.440633
0.0525172
-0.323809
-0.687194
-1.03667
-1.36988
-1.6889
-1.99032
-2.26884
-2.52182
-2.74163
-2.92613
-3.07751
-3.19735
-3.28786
-3.35276
-3.39556
-3.41709
-3.41974
-3.40642
-3.37962
-3.34145
-3.2938
-3.23843
-3.1769
-3.11055
-3.04055
-2.96794
-2.89341
-2.8189
3.92733
3.65924
3.4081
3.11864
2.8015
2.47315
2.13788
1.79882
1.45706
1.11298
0.770639
0.432249
0.103181
-0.214473
-0.519757
-0.811874
-1.08902
-1.35272
-1.60046
-1.82842
-2.03485
-2.21409
-2.36493
-2.48935
-2.58874
-2.66496
-2.72095
-2.75949
-2.78134
-2.78838
-2.78285
-2.76668
-2.74148
-2.70872
-2.66973
-2.62571
-2.57769
-2.52656
-2.47314
-2.41792
-2.36255
3.46197
3.232
3.01236
2.75837
2.48019
2.19238
1.89906
1.60323
1.30626
1.00891
0.714615
0.425329
0.14531
-0.12376
-0.381108
-0.626104
-0.857396
-1.07613
-1.2805
-1.46779
-1.63686
-1.78354
-1.90729
-2.00985
-2.09243
-2.15662
-2.20475
-2.23903
-2.26015
-2.26961
-2.26915
-2.26026
-2.24418
-2.22206
-2.19492
-2.16369
-2.12915
-2.092
-2.05288
-2.01212
-1.97116
3.06753
2.87017
2.67737
2.45371
2.20877
1.95548
1.69783
1.43873
1.1797
0.921753
0.66781
0.419588
0.180461
-0.0482352
-0.265892
-0.47204
-0.665694
-0.847754
-1.01695
-1.17137
-1.31036
-1.43085
-1.53274
-1.61755
-1.68636
-1.74048
-1.7818
-1.81208
-1.83195
-1.84259
-1.84537
-1.84144
-1.83179
-1.81729
-1.79875
-1.77688
-1.7523
-1.72552
-1.69707
-1.66717
-1.63705
2.73258
2.56312
2.39323
2.19549
1.97895
1.75509
1.52783
1.29997
1.07315
0.848498
0.628543
0.414764
0.20983
0.014789
-0.169904
-0.343926
-0.506587
-0.658628
-0.799187
-0.926975
-1.04167
-1.14103
-1.22524
-1.29564
-1.35315
-1.39889
-1.43439
-1.46104
-1.47942
-1.49047
-1.49526
-1.49471
-1.48957
-1.48055
-1.46827
-1.45326
-1.43604
-1.41698
-1.39651
-1.37478
-1.35283
2.44781
2.30222
2.15187
1.97629
1.78399
1.58523
1.38387
1.18261
0.983152
0.78671
0.59544
0.410618
0.234347
0.0674302
-0.0898158
-0.237201
-0.374276
-0.501677
-0.618864
-0.725002
-0.82001
-0.902281
-0.97217
-1.03084
-1.07909
-1.11788
-1.14842
-1.17187
-1.1887
-1.19969
-1.20569
-1.2074
-1.20544
-1.20035
-1.19261
-1.18267
-1.17089
-1.15759
-1.14311
-1.12753
-1.11175
2.20561
2.08041
1.94672
1.79003
1.6184
1.44102
1.2617
1.0831
0.906914
0.734385
0.567363
0.406932
0.254735
0.111365
-0.0229824
-0.148237
-0.264142
-0.371273
-0.469332
-0.557827
-0.636845
-0.705254
-0.763513
-0.812623
-0.853284
-0.886297
-0.912661
-0.933297
-0.948633
-0.959291
-0.96594
-0.969151
-0.969402
-0.967122
-0.962696
-0.956464
-0.948723
-0.939721
-0.92972
-0.918773
-0.90766
1.99968
1.89187
1.77236
1.63175
1.47768
1.31848
1.1579
0.998544
0.842127
0.689868
0.543354
0.403491
0.271541
0.147916
0.0327022
-0.0741349
-0.172496
-0.262919
-0.345294
-0.419381
-0.485383
-0.542529
-0.591326
-0.632637
-0.667067
-0.695296
-0.718137
-0.73634
-0.750277
-0.760452
-0.767399
-0.771571
-0.77335
-0.773076
-0.771053
-0.76755
-0.762802
-0.757003
-0.750364
-0.742912
-0.735321
1.82486
1.7318
1.62428
1.49727
1.35807
1.21427
1.06958
0.926566
0.786909
0.651807
0.522618
0.400089
0.28517
0.178115
0.0789052
-0.0125862
-0.0963888
-0.173019
-0.242511
-0.304807
-0.360194
-0.408163
-0.449243
-0.484174
-0.513478
-0.537734
-0.557606
-0.573706
-0.586356
-0.595969
-0.602971
-0.607724
-0.610533
-0.61167
-0.611376
-0.609864
-0.607321
-0.603899
-0.599772
-0.594944
-0.590002
1.67696
1.59628
1.49877
1.38309
1.25632
1.12547
0.99421
0.865043
0.739608
0.619035
0.504482
0.396552
0.295942
0.202775
0.116945
0.0382413
-0.0334719
-0.0987031
-0.157597
-0.210233
-0.256947
-0.297432
-0.332209
-0.361914
-0.386998
-0.407952
-0.425323
-0.439613
-0.451099
-0.46012
-0.467019
-0.472087
-0.475569
-0.477682
-0.47862
-0.478551
-0.477625
-0.475961
-0.473703
-0.470839
-0.467884
1.55252
1.48223
1.39302
1.28663
1.17003
1.0498
0.92965
0.812057
0.698605
0.590331
0.488178
0.392593
0.304041
0.22253
0.147881
0.0798232
0.0181395
-0.0376726
-0.0878411
-0.132545
-0.172155
-0.206513
-0.236125
-0.261533
-0.28313
-0.301333
-0.316593
-0.329323
-0.339761
-0.348188
-0.354879
-0.36007
-0.36396
-0.366724
-0.368515
-0.369471
-0.36971
-0.369328
-0.368442
-0.367034
-0.365548
1.44866
1.38703
1.30477
1.20605
1.09775
0.986097
0.874883
0.766625
0.662918
0.564757
0.472918
0.387687
0.309304
0.237634
0.172401
0.113261
0.0599283
0.0119094
-0.0310784
-0.0692755
-0.103065
-0.132399
-0.157756
-0.179604
-0.198285
-0.214157
-0.227599
-0.238951
-0.248421
-0.256241
-0.262636
-0.267798
-0.271887
-0.275046
-0.277399
-0.279056
-0.280113
-0.280645
-0.280749
-0.280401
-0.279987
1.36291
1.30803
1.23113
1.13853
1.03709
0.932677
0.828982
0.728466
0.632695
0.54265
0.459033
0.382077
0.311897
0.248266
0.19082
0.139127
0.0928025
0.0513198
0.0143286
-0.0184694
-0.0474654
-0.0726911
-0.0945894
-0.113551
-0.129872
-0.143853
-0.155807
-0.166015
-0.174658
-0.181926
-0.188008
-0.193058
-0.197211
-0.200583
-0.203279
-0.205386
-0.206985
-0.208136
-0.208922
-0.209316
-0.209644
1.29349
1.243
1.1689
1.07978
0.982952
0.884161
0.786966
0.693567
0.605244
0.522726
0.446484
0.376632
0.313197
0.255958
0.204582
0.158668
0.117828
0.0815548
0.0494552
0.0211733
-0.00370675
-0.0253115
-0.0440753
-0.0603568
-0.0744287
-0.0865628
-0.0970243
-0.106051
-0.113796
-0.120421
-0.126075
-0.130883
-0.134955
-0.138382
-0.141248
-0.143624
-0.145573
-0.147145
-0.148403
-0.149329
-0.150181
1.23942
1.19202
1.11905
1.03068
0.935002
0.838226
0.744285
0.655477
0.572962
0.497181
0.428209
0.365776
0.309545
0.259045
0.213795
0.173329
0.137252
0.105128
0.0766213
0.0514369
0.0292275
0.00986549
-0.00701184
-0.0216912
-0.0344099
-0.0454039
-0.0549068
-0.063124
-0.0702052
-0.0762938
-0.081526
-0.0860137
-0.089856
-0.0931343
-0.0959241
-0.0982865
-0.100279
-0.101944
-0.103335
-0.104446
-0.105459
1.19989
1.1572
1.08829
1.00281
0.908611
0.812106
0.71781
0.628656
0.546341
0.471678
0.404906
0.345787
0.293857
0.248458
0.208865
0.174345
0.144242
0.11791
0.0948373
0.0746007
0.0568119
0.0412615
0.0276054
0.0155946
0.00504235
-0.00423434
-0.0123998
-0.0196033
-0.0259453
-0.0315291
-0.0364451
-0.0407758
-0.0445878
-0.0479438
-0.0508955
-0.0534921
-0.0557737
-0.057777
-0.0595381
-0.0610646
-0.0624565
1.17375
1.13496
1.07128
0.992217
0.904752
0.814324
0.724834
0.638917
0.558242
0.483792
0.416051
0.355111
0.300831
0.252876
0.210811
0.174135
0.142343
0.114903
0.0913149
0.0711064
0.0538088
0.0390759
0.0265141
0.0158257
0.00673932
-0.000988632
-0.00757695
-0.0132028
-0.01801
-0.0221181
-0.0256362
-0.0286471
-0.0312264
-0.0334305
-0.0353136
-0.036915
-0.0382736
-0.0394179
-0.0403737
-0.041171
-0.0417924
1.15992
1.11092
1.03326
0.943393
0.851237
0.762438
0.679792
0.604379
0.536346
0.475373
0.420936
0.372426
0.329231
0.290767
0.256501
0.225954
0.198702
0.174377
0.152673
0.13334
0.116139
0.10086
0.0872336
0.0750976
0.0643111
0.0547378
0.0462397
0.0387006
0.0320159
0.0260946
0.0208478
0.0162012
0.0120841
0.00843833
0.00520838
0.00234826
-0.000184089
-0.0024283
-0.00440286
-0.00618571
-0.00760147
103.122
71.146
53.5131
50.2838
45.8878
40.1481
35.4653
31.7517
28.4661
25.507
22.8908
20.5778
18.5161
16.6713
15.0186
13.5359
12.2036
11.0049
9.92532
8.95237
8.07495
7.2833
6.56876
5.92366
5.34114
4.81507
4.33995
3.91087
3.52338
3.1735
2.85761
2.57249
2.31517
2.08302
1.87361
1.68479
1.51457
1.36118
1.223
1.09855
0.986525
0.885712
0.795004
0.713456
0.640108
0.574221
0.514983
0.461776
0.413989
0.371073
0.332493
0.297888
0.266757
0.238793
0.213645
0.190974
0.170607
0.15213
0.135501
0.120346
0.106646
0.094091
0.0826132
0.0720284
0.0621953
0.0530493
0.0443367
0.0361865
0.0273983
0.0210097
0.00660726
0.011332
-0.0507169
0.0737679
100.055
71.172
53.6404
50.1906
45.8412
40.1244
35.4419
31.7336
28.4532
25.4969
22.8826
20.5712
18.5109
16.667
15.0151
13.5331
12.2013
11.0029
9.92372
8.95105
8.07387
7.2824
6.56803
5.92306
5.34064
4.81466
4.33962
3.9106
3.52317
3.17333
2.85748
2.57238
2.31509
2.08296
1.87356
1.68475
1.51455
1.36117
1.22299
1.09855
0.98653
0.88572
0.795015
0.713469
0.640123
0.574237
0.515
0.461794
0.414006
0.37109
0.332511
0.297905
0.266773
0.238808
0.21366
0.19099
0.170619
0.152143
0.135513
0.120358
0.106657
0.0941022
0.0826241
0.0720396
0.0622071
0.0530626
0.0443476
0.0361997
0.0274126
0.0210199
0.00663719
0.0113159
-0.0504813
0.0734593
95.6857
71.1029
53.6988
49.9211
45.7153
40.0663
35.3872
31.6908
28.4228
25.4735
22.8638
20.5563
18.499
16.6574
15.0073
13.5267
12.1961
10.9987
9.92029
8.94825
8.07158
7.28054
6.56651
5.92183
5.33965
4.81387
4.33899
3.9101
3.52277
3.17302
2.85725
2.57221
2.31496
2.08287
1.87351
1.68473
1.51454
1.36118
1.22301
1.09858
0.986567
0.885762
0.795062
0.713518
0.640175
0.574288
0.515052
0.461846
0.414056
0.371139
0.332559
0.297951
0.266818
0.238851
0.2137
0.191029
0.170655
0.152178
0.135544
0.120389
0.106686
0.0941305
0.0826515
0.0720672
0.0622354
0.0530915
0.0443757
0.0362303
0.0274458
0.0210445
0.00670324
0.0112892
-0.0499855
0.0728118
90.2899
70.4453
53.633
49.4634
45.4618
39.9458
35.2831
31.6086
28.365
25.43
22.8295
20.5294
18.4779
16.6407
14.9939
13.516
12.1875
10.9918
9.91472
8.94377
8.06798
7.27766
6.56422
5.92001
5.33821
4.81274
4.33811
3.90943
3.52227
3.17265
2.85699
2.57203
2.31485
2.08282
1.8735
1.68475
1.51459
1.36125
1.2231
1.09868
0.986672
0.885872
0.795175
0.713631
0.640288
0.574399
0.515161
0.461952
0.414158
0.371238
0.332655
0.298041
0.266905
0.238932
0.213777
0.191103
0.170722
0.152243
0.135604
0.120447
0.106739
0.0941815
0.0827
0.072115
0.0622833
0.053139
0.044423
0.0362792
0.0274996
0.021085
0.00680926
0.0112542
-0.0492017
0.0717895
83.9946
68.9231
53.3788
48.7794
45.0023
39.7154
35.1009
31.4626
28.261
25.353
22.7696
20.4829
18.4418
16.6124
14.9717
13.4984
12.1736
10.9808
9.90595
8.93683
8.06249
7.27333
6.56081
5.91735
5.33615
4.81116
4.33692
3.90854
3.52163
3.17221
2.8567
2.57187
2.31478
2.08282
1.87356
1.68486
1.51473
1.36141
1.22328
1.09887
0.986867
0.88607
0.795373
0.713826
0.640481
0.574585
0.515342
0.462128
0.414325
0.371397
0.332808
0.298185
0.267042
0.239061
0.213899
0.191218
0.170827
0.152344
0.135697
0.120535
0.10682
0.0942598
0.0827741
0.0721867
0.0623538
0.053208
0.044491
0.0363481
0.0275752
0.0211414
0.00695788
0.0112079
-0.0480929
0.0703289
76.9878
66.3483
52.7612
47.811
44.2494
39.3081
34.8004
31.2186
28.0819
25.2204
22.6668
20.4029
18.3798
16.5641
14.9337
13.4685
12.15
10.9622
9.89131
8.92528
8.0534
7.26619
6.55523
5.913
5.33279
4.80858
4.33497
3.9071
3.52058
3.17147
2.85621
2.57157
2.31464
2.0828
1.87363
1.68499
1.51492
1.36163
1.22352
1.09913
0.98714
0.886347
0.795652
0.714101
0.640751
0.574846
0.515595
0.462371
0.414558
0.371619
0.33302
0.298384
0.267231
0.239239
0.214066
0.191375
0.170973
0.152482
0.135824
0.120656
0.106931
0.094365
0.0828724
0.0722807
0.0624448
0.0532955
0.0445765
0.0364326
0.0276689
0.02121
0.00714845
0.0111475
-0.0466377
0.0683841
69.4847
62.625
51.5424
46.4918
43.1245
38.6381
34.3274
30.8347
27.7909
25.0024
22.4971
20.2695
18.2753
16.4819
14.8687
13.417
12.1091
10.9297
9.86552
8.9048
8.03715
7.25332
6.54505
5.90499
5.3265
4.80368
4.33117
3.90418
3.51837
3.16983
2.85501
2.57073
2.31408
2.08246
1.87346
1.68496
1.51498
1.36178
1.22372
1.09937
0.98741
0.886637
0.795952
0.714404
0.641055
0.575146
0.515889
0.462656
0.414832
0.371881
0.333271
0.298621
0.267458
0.239452
0.214266
0.191564
0.171147
0.152647
0.135976
0.1208
0.107063
0.0944901
0.0829889
0.072391
0.0625502
0.0533959
0.0446733
0.0365273
0.0277749
0.021284
0.00737748
0.0110659
-0.0448137
0.0658962
61.7617
57.8291
49.4952
44.7297
41.5629
37.6096
33.6113
30.2612
27.344
24.6621
22.2307
20.0576
18.107
16.3478
14.7613
13.3308
12.0398
10.874
9.82063
8.86866
8.00807
7.22994
6.52628
5.88994
5.31447
4.79409
4.32355
3.89815
3.51363
3.16612
2.85214
2.56853
2.31242
2.08123
1.87257
1.68434
1.51459
1.36155
1.22363
1.09938
0.987499
0.886783
0.796142
0.714624
0.641297
0.575398
0.516148
0.462918
0.41509
0.372134
0.333519
0.298858
0.267686
0.239668
0.214471
0.191759
0.171327
0.152819
0.136135
0.120951
0.107202
0.0946207
0.0831098
0.0725048
0.0626584
0.0534976
0.0447715
0.0366218
0.0278846
0.0213555
0.00763984
0.0109582
-0.042622
0.0628461
54.0859
52.1898
46.4746
42.4032
39.5133
36.1332
32.5668
29.4379
26.6906
24.1556
21.832
19.7381
17.8503
16.1411
14.594
13.1948
11.9292
10.7838
9.74707
8.80861
7.95905
7.18994
6.49366
5.86336
5.29284
4.7765
4.30928
3.8866
3.5043
3.15861
2.84612
2.56372
2.3086
2.0782
1.87021
1.6825
1.51317
1.36048
1.22284
1.09882
0.987108
0.886533
0.796004
0.71457
0.641311
0.575462
0.516251
0.463048
0.41524
0.372296
0.333689
0.29903
0.267859
0.239838
0.214637
0.191919
0.171478
0.152965
0.136271
0.121082
0.107323
0.0947361
0.083217
0.072606
0.0627547
0.0535881
0.0448589
0.0367058
0.0279885
0.0214153
0.00792935
0.0108175
-0.0400691
0.0592243
46.6
45.9916
42.4714
39.391
36.9252
34.137
31.1011
28.2915
25.7715
23.4304
21.2572
19.2755
17.4758
15.8373
14.3464
12.9922
11.7629
10.6471
9.63446
8.71574
7.8824
7.12665
6.44139
5.8202
5.25723
4.74713
4.28509
3.86668
3.48793
3.14517
2.8351
2.55471
2.30124
2.07221
1.86534
1.67857
1.51
1.35793
1.2208
1.0972
0.985832
0.885536
0.795235
0.713984
0.640875
0.575143
0.51603
0.462903
0.415154
0.372256
0.333687
0.299053
0.267904
0.239896
0.214705
0.191995
0.171556
0.153047
0.13635
0.121163
0.107398
0.0948112
0.083288
0.0726745
0.0628215
0.0536516
0.0449226
0.0367675
0.0280772
0.0214559
0.00824065
0.010642
-0.0371915
0.0550836
39.2861
39.4663
37.6066
35.619
33.7409
31.5669
29.1266
26.7373
24.5174
22.4251
20.4526
18.625
16.9463
15.4053
13.9928
12.7015
11.5233
10.4491
9.47052
8.57975
7.76944
7.03271
6.36322
5.75512
5.20302
4.70198
4.24749
3.83539
3.46188
3.12352
2.81711
2.53977
2.28886
2.06195
1.85685
1.67155
1.50421
1.35316
1.21688
1.09398
0.983197
0.883383
0.793482
0.712559
0.639723
0.574213
0.515285
0.462308
0.414683
0.371885
0.3334
0.29883
0.267736
0.23977
0.214613
0.191931
0.17151
0.153021
0.136334
0.12116
0.107401
0.0948216
0.0833018
0.0726924
0.0628435
0.0536753
0.0449512
0.0367978
0.0281432
0.0214707
0.00856913
0.01043
-0.0340361
0.0505003
32.0648
32.7611
32.0809
31.1048
29.9197
28.3885
26.5775
24.692
22.852
21.0703
19.3547
17.7312
16.2149
14.8053
13.4995
12.2948
11.1869
10.1704
9.23906
8.3872
7.60901
6.89886
6.25141
5.66163
5.12479
4.63649
4.19263
3.78943
3.42337
3.09125
2.79007
2.51713
2.2699
2.04608
1.84358
1.66045
1.49493
1.34542
1.21042
1.08859
0.978706
0.879644
0.790373
0.709973
0.637578
0.572432
0.51381
0.461088
0.413674
0.371051
0.332713
0.298262
0.26727
0.239386
0.214296
0.191672
0.171294
0.152847
0.136188
0.121044
0.107304
0.0947448
0.0832389
0.0726428
0.0628063
0.053647
0.0449354
0.0367888
0.0281808
0.0214566
0.00891165
0.0101863
-0.0306788
0.045609
24.9125
25.9803
26.1197
25.9695
25.4818
24.6037
23.4285
22.0973
20.7069
19.2984
17.8971
16.5323
15.2263
13.9889
12.8247
11.736
10.7234
9.78517
8.9185
8.12003
7.38602
6.71251
6.09551
5.53107
5.01534
4.54467
4.11554
3.72466
3.36894
3.04548
2.75158
2.48474
2.24265
2.02315
1.82428
1.64421
1.48127
1.33392
1.20075
1.08046
0.971873
0.873901
0.785547
0.705919
0.634174
0.569572
0.51141
0.459072
0.411983
0.36963
0.331521
0.297259
0.266428
0.238678
0.2137
0.191171
0.170869
0.152492
0.135886
0.120792
0.107088
0.0945648
0.0830865
0.0725155
0.0627019
0.0535608
0.0448702
0.0367375
0.0281882
0.0214129
0.00926626
0.00991627
-0.0271989
0.0405527
17.9027
19.2418
19.9483
20.416
20.5409
20.2783
19.7128
18.9453
18.0461
17.0608
16.0248
14.9706
13.9245
12.9042
11.9211
10.9832
10.0959
9.26168
8.48147
7.75489
7.08068
6.45697
5.88147
5.35164
4.86482
4.4183
4.00939
3.63543
3.29388
2.98231
2.69839
2.43994
2.20489
1.99132
1.79744
1.62157
1.46217
1.31781
1.18715
1.06898
0.96218
0.865717
0.778639
0.700084
0.629248
0.565411
0.507896
0.456104
0.409475
0.367509
0.32973
0.295742
0.265145
0.237591
0.212777
0.19039
0.170203
0.151928
0.135403
0.120384
0.106739
0.0942691
0.0828344
0.0723023
0.0625237
0.0534116
0.0447525
0.0366417
0.0281646
0.0213414
0.00963119
0.00963067
-0.0236905
0.0354979
11.2045
12.7195
13.8049
14.7024
15.3055
15.5674
15.545
15.3058
14.8969
14.3554
13.7162
13.011
12.2673
11.5063
10.7445
9.99429
9.26542
8.56468
7.89667
7.26426
6.66904
6.11155
5.59155
5.10823
4.66039
4.24655
3.86502
3.51404
3.19178
2.89639
2.62606
2.37902
2.15356
1.94806
1.76096
1.5908
1.4362
1.29589
1.16864
1.05335
0.948972
0.854554
0.769203
0.692105
0.6225
0.5597
0.503064
0.452014
0.406012
0.364575
0.327245
0.293633
0.263357
0.236073
0.211486
0.189294
0.169268
0.151135
0.134725
0.119809
0.106246
0.093851
0.0824784
0.0720008
0.0622709
0.0531998
0.0445834
0.0365037
0.0281123
0.0212462
0.0100054
0.00934057
-0.020235
0.0305866
5.05826
6.64769
7.95374
9.11551
10.0473
10.7064
11.1221
11.3333
11.3674
11.2491
11.0054
10.6625
10.2448
9.77291
9.26476
8.73537
8.19715
7.66009
7.13194
6.61862
6.12448
5.65258
5.20493
4.78268
4.38633
4.01587
3.67088
3.35065
3.05425
2.78063
2.52861
2.29697
2.08446
1.88986
1.71192
1.54947
1.40137
1.26651
1.14386
1.03244
0.931326
0.839656
0.756621
0.681475
0.613517
0.552105
0.496642
0.44658
0.401414
0.360681
0.323949
0.290839
0.260987
0.234064
0.209779
0.187845
0.168033
0.150088
0.133832
0.119051
0.1056
0.0933025
0.0820125
0.0716065
0.0619407
0.0529239
0.0443628
0.0363243
0.028033
0.0211321
0.0103865
0.00905973
-0.016911
0.0259488
-0.219665
1.33752
2.71835
3.99402
5.10314
6.01244
6.73227
7.27983
7.66726
7.90729
8.01614
8.01173
7.91182
7.73333
7.49208
7.20253
6.87754
6.52832
6.16441
5.79374
5.42282
5.05689
4.70001
4.35528
4.02497
3.71062
3.41323
3.13331
2.87101
2.6262
2.39849
2.18737
1.99216
1.81212
1.64646
1.49435
1.35495
1.22741
1.11093
1.0047
0.907956
0.819962
0.740022
0.667479
0.601714
0.542149
0.488241
0.43949
0.395427
0.355624
0.319677
0.287226
0.257932
0.231479
0.20759
0.185992
0.166461
0.148758
0.132702
0.118095
0.104788
0.092616
0.0814326
0.0711181
0.0615333
0.0525859
0.0440936
0.0361079
0.0279306
0.0210056
0.0107726
0.00880258
-0.013775
0.0216732
-4.16
-2.72848
-1.39851
-0.140829
1.00431
2.0136
2.88722
3.62919
4.2418
4.72894
5.09775
5.35767
5.51928
5.59379
5.5927
5.52744
5.40899
5.24764
5.05282
4.83294
4.59544
4.34671
4.09218
3.83635
3.58289
3.33473
3.09414
2.86282
2.64201
2.43251
2.23483
2.04918
1.87556
1.71379
1.56358
1.42451
1.29612
1.17787
1.06921
0.969577
0.878386
0.795068
0.719064
0.649834
0.586857
0.529636
0.477702
0.430611
0.387945
0.349317
0.314359
0.282741
0.254146
0.228284
0.20489
0.183712
0.164532
0.147128
0.131323
0.116931
0.103802
0.0917837
0.0807314
0.0705292
0.0610433
0.0521808
0.0437716
0.0358514
0.0278013
0.0208676
0.011151
0.00857979
-0.0108865
0.0178307
-6.70178
-5.45122
-4.25285
-3.09991
-2.01757
-1.02137
-0.115589
0.697266
1.41429
2.03413
2.55785
2.98851
3.3307
3.59021
3.77382
3.88902
3.94367
3.94573
3.90303
3.82305
3.71283
3.57879
3.42675
3.26182
3.08845
2.91046
2.73101
2.55275
2.37778
2.20776
2.04396
1.88732
1.73846
1.5978
1.46553
1.34171
1.22624
1.11893
1.01953
0.927711
0.843121
0.765373
0.694065
0.628791
0.569146
0.514731
0.465157
0.420053
0.379058
0.341835
0.30806
0.277435
0.249676
0.224517
0.201714
0.181034
0.162272
0.145223
0.129714