/*--------------------------------*- C++ -*----------------------------------*\
  =========                 |
  \\      /  F ield         | OpenFOAM: The Open Source CFD Toolbox
   \\    /   O peration     | Website:  https://openfoam.org
    \\  /    A nd           | Version:  11
     \\/     M anipulation  |
\*---------------------------------------------------------------------------*/
FoamFile
{
    format      ascii;
    class       surfaceScalarField;
    location    "250";
    object      phi;
}
// * * * * * * * * * * * * * * * * * * * * * * * * * * * * * * * * * * * * * //

dimensions      [0 3 -1 0 0 0 0];

internalField   nonuniform List<scalar> 
21876
(
0.00520744
-0.00520328
-4.18771e-06
0.0107839
-0.00557646
0.0164477
-0.00566384
0.0214103
-0.00496267
0.0264973
-0.00508704
0.0306354
-0.00413807
0.032831
-0.00219562
0.0314864
0.00134461
0.0308383
0.000648036
0.0312988
-0.000460472
0.0326315
-0.00133268
0.0362834
-0.00365188
0.0400441
-0.00376072
0.0424261
-0.002382
0.0396755
0.00275065
0.0322421
0.00743333
0.0212042
0.0110379
0.0170761
0.00412805
0.0169791
9.70753e-05
0.0175096
-0.000530576
0.0180588
-0.000549116
0.0184204
-0.000361598
0.0186556
-0.00023519
0.0188963
-0.000240723
0.0191994
-0.000303077
0.0189067
0.000292691
0.0181296
0.000777107
0.0179179
0.000211674
0.0177266
0.000191308
0.0175641
0.000162486
0.0173988
0.000165248
0.0172066
0.000192232
0.01698
0.000226644
0.0167111
0.00026884
0.0163886
0.000322478
0.0159934
0.000395258
0.0154956
0.000497756
0.0148443
0.000651342
0.0139827
0.000861577
0.0124835
0.00149921
0.00264077
0.00984275
0.00602361
-0.0112268
-1.14038e-07
0.012368
-0.0119209
0.0187621
-0.012058
0.0245764
-0.010777
0.0302291
-0.0107398
0.0348516
-0.0087606
0.0378969
-0.00524095
0.0384422
0.00079933
0.0389186
0.000171742
0.0399931
-0.001535
0.0417335
-0.00307306
0.0453132
-0.00723161
0.0488625
-0.00730998
0.0513004
-0.00481989
0.0508382
0.0032129
0.0472743
0.0109972
0.0389736
0.0193386
0.0330104
0.0100913
0.029668
0.00343949
0.0277693
0.0013681
0.026893
0.00032717
0.0265581
-2.66106e-05
0.0264284
-0.000105577
0.0264415
-0.000253804
0.0265926
-0.000454195
0.0263765
0.000508854
0.0257035
0.00145012
0.0253246
0.000590569
0.0249687
0.000547211
0.0246626
0.000468503
0.0243909
0.000436964
0.0241253
0.000457891
0.0238473
0.000504617
0.0235418
0.000574348
0.0231945
0.000669807
0.0227856
0.00080414
0.0222955
0.000987883
0.0216624
0.00128442
0.0209156
0.00160833
0.0196998
0.002715
0.00530835
0.0170323
0.00703636
-0.018264
8.79662e-07
0.0143252
-0.0192097
0.0216261
-0.019359
0.0283603
-0.0175111
0.0347514
-0.0171309
0.0402017
-0.0142109
0.044125
-0.00916431
0.0456872
-0.000762867
0.0468146
-0.000955579
0.0483759
-0.00309633
0.0505845
-0.00528161
0.0543368
-0.010984
0.058198
-0.0111712
0.0608126
-0.00743448
0.0602426
0.00378294
0.0573833
0.0138565
0.0510961
0.0256258
0.0458467
0.0153407
0.0422186
0.00706761
0.0394623
0.00412437
0.0376599
0.00212962
0.0366533
0.000979976
0.0360638
0.000483947
0.0357598
5.02141e-05
0.0356588
-0.000353223
0.0352111
0.000956556
0.0343684
0.00229279
0.0338714
0.00108763
0.0334314
0.00098715
0.0330356
0.000864317
0.0326724
0.000800195
0.0323148
0.000815509
0.0319445
0.00087487
0.0315457
0.000973162
0.0311015
0.00111404
0.0305882
0.00131739
0.0299819
0.00159419
0.0292218
0.00204449
0.0283035
0.00252663
0.027013
0.00400555
0.00782074
0.0245006
0.00826383
-0.0265291
1.21364e-06
0.0166866
-0.0276325
0.0250255
-0.0276978
0.032757
-0.0252426
0.0400105
-0.0243844
0.0463316
-0.020532
0.0512247
-0.0140574
0.0538341
-0.00337224
0.0556551
-0.00277656
0.0577475
-0.00518872
0.0605417
-0.00807579
0.0646164
-0.0150587
0.0687874
-0.0153422
0.0718129
-0.01046
0.0715299
0.00406592
0.0684431
0.0169433
0.0622996
0.0317693
0.057179
0.0204613
0.0540469
0.0101997
0.0515936
0.00657763
0.0496741
0.00404914
0.0483884
0.0022657
0.0474986
0.00137373
0.0469166
0.000632178
0.04658
-1.65871e-05
0.0459446
0.00159192
0.044917
0.00332043
0.0442422
0.0017624
0.0436912
0.00153813
0.0431959
0.00135964
0.0427403
0.00125576
0.0422957
0.00126013
0.0418397
0.00133088
0.0413541
0.00145873
0.0408201
0.00164808
0.0402117
0.00192577
0.0395006
0.00230529
0.0386289
0.00291624
0.037567
0.0035885
0.0361762
0.00539634
0.0102859
0.033711
0.00972598
-0.0362564
1.31516e-06
0.0194713
-0.0373778
0.0289957
-0.0372222
0.0378366
-0.0340835
0.0460887
-0.0326365
0.0534006
-0.027844
0.0593968
-0.0200535
0.0632877
-0.00726315
0.0662052
-0.00569407
0.0689941
-0.00797754
0.0723713
-0.011453
0.0767205
-0.0194079
0.0811065
-0.0197281
0.0844926
-0.013846
0.0847735
0.00378501
0.081817
0.0198997
0.0754543
0.0381321
0.069636
0.0262795
0.0662907
0.013545
0.0640692
0.00879919
0.0623655
0.00575278
0.0612208
0.00341039
0.0604012
0.00219334
0.0598062
0.0012272
0.0594095
0.000380083
0.0587349
0.00226653
0.0576397
0.00441567
0.0568418
0.0025603
0.056205
0.00217492
0.0556277
0.00193699
0.0550949
0.00178851
0.0545803
0.00177471
0.0540565
0.00185471
0.0535017
0.00201358
0.0528949
0.00225487
0.0522092
0.00261145
0.0514134
0.00310109
0.0504567
0.00387296
0.0492934
0.00475175
0.04788
0.00680978
0.0126679
0.045498
0.011462
-0.0477198
1.3613e-06
0.022756
-0.0486718
0.0336514
-0.0481177
0.0437446
-0.0441767
0.0531362
-0.0420281
0.0615652
-0.036273
0.068782
-0.0272703
0.0740841
-0.0125653
0.078389
-0.00999903
0.0820937
-0.0116822
0.0861632
-0.0155225
0.0908493
-0.024094
0.0954431
-0.0243219
0.0991779
-0.0175809
0.100214
0.00274856
0.0979336
0.0221805
0.0918133
0.0442524
0.0851368
0.032956
0.0808726
0.0178093
0.0782898
0.011382
0.076488
0.00755457
0.0753886
0.00450981
0.0747003
0.00288162
0.0742369
0.00169058
0.0739436
0.000673393
0.0734171
0.00279298
0.0724474
0.0053854
0.0716603
0.00334746
0.0710373
0.00279789
0.0704644
0.00250984
0.0699251
0.00232781
0.0694016
0.00229824
0.0688659
0.00239039
0.0682943
0.00258519
0.0676653
0.0028839
0.066953
0.00332378
0.0661257
0.00392838
0.0651452
0.00485343
0.0639562
0.00594083
0.062625
0.00814093
0.0148443
0.0604486
0.0135296
-0.0612508
1.35802e-06
0.0266525
-0.0617947
0.039153
-0.0606181
0.0506843
-0.0557081
0.061381
-0.0527248
0.0710685
-0.0459605
0.0796143
-0.035816
0.0864052
-0.0193562
0.0923174
-0.0159112
0.0972005
-0.0165652
0.102127
-0.0204488
0.107255
-0.0292224
0.112092
-0.0291593
0.116187
-0.0216751
0.118067
0.000867739
0.116858
0.0233896
0.111623
0.0494882
0.10453
0.040049
0.0991847
0.0231543
0.0958468
0.0147198
0.0935806
0.00982084
0.0922174
0.00587298
0.0914336
0.00366538
0.0909734
0.00215086
0.090718
0.000928754
0.0903285
0.00318244
0.0895424
0.00617154
0.0888374
0.00405246
0.088298
0.00333733
0.0878121
0.00299565
0.0873472
0.00279278
0.0868911
0.00275431
0.0864188
0.00286267
0.0859058
0.00309824
0.0853308
0.00345889
0.0846712
0.00398338
0.0838978
0.00470171
0.0829908
0.00576046
0.081893
0.0070386
0.0807722
0.0092618
0.0166484
0.0789681
0.0160037
-0.0772559
1.37563e-06
0.0313061
-0.077097
0.0457088
-0.0750209
0.0589214
-0.0689207
0.0711263
-0.0649297
0.082234
-0.0570683
0.0922206
-0.0458026
0.100555
-0.0276902
0.108201
-0.0235575
0.114498
-0.0228621
0.120466
-0.026417
0.126183
-0.0349396
0.131359
-0.0343353
0.135857
-0.0261733
0.138626
-0.00190075
0.138724
0.0232909
0.134964
0.0532489
0.128201
0.046812
0.122043
0.0293118
0.11783
0.0189326
0.114915
0.0127363
0.113079
0.00770922
0.111981
0.00476285
0.111341
0.00279116
0.110973
0.0012968
0.11058
0.00357518
0.109886
0.00686595
0.10921
0.00472783
0.108704
0.00384349
0.108283
0.00341675
0.107893
0.00318273
0.107519
0.00312854
0.107137
0.0032446
0.106721
0.00351452
0.106248
0.00393181
0.105699
0.00453171
0.105052
0.00534911
0.104307
0.00650585
0.103416
0.00792923
0.102614
0.0100641
0.0179253
0.101337
0.0189785
-0.0962357
1.38424e-06
0.0368992
-0.0950178
0.0535813
-0.0917029
0.0687901
-0.0841294
0.0827596
-0.0788992
0.0954836
-0.0697923
0.107038
-0.0573566
0.116966
-0.0376187
0.126383
-0.0329747
0.13426
-0.0307392
0.141456
-0.0336127
0.147945
-0.0414285
0.153612
-0.0400023
0.158609
-0.0311705
0.162305
-0.0055965
0.16384
0.0217557
0.162006
0.0550835
0.156404
0.0524136
0.150019
0.0356973
0.145047
0.0239046
0.14145
0.0163327
0.139067
0.0100929
0.137537
0.00629251
0.136591
0.00373692
0.136
0.00188832
0.135488
0.00408734
0.134788
0.00756557
0.134079
0.00543679
0.133527
0.00439589
0.133094
0.00384926
0.132719
0.0035581
0.132376
0.00347092
0.132045
0.00357553
0.1317
0.00386017
0.131317
0.00431475
0.130882
0.00496667
0.130379
0.00585227
0.129826
0.00705843
0.129199
0.00855634
0.128741
0.0105216
0.0186166
0.12805
0.0225697
-0.118807
1.41537e-06
0.0436556
-0.116104
0.0630912
-0.111138
0.0806977
-0.101736
0.0967575
-0.094959
0.111345
-0.0843795
0.124625
-0.0706368
0.136221
-0.0492151
0.147393
-0.0441461
0.156931
-0.0402771
0.165505
-0.0421875
0.172963
-0.0488862
0.179316
-0.0463554
0.184962
-0.0368169
0.189632
-0.0102663
0.192652
0.018736
0.193003
0.0547323
0.189336
0.0560812
0.183563
0.0414695
0.178234
0.0292341
0.174074
0.0204924
0.17117
0.0129973
0.169176
0.00828644
0.16786
0.00505303
0.166984
0.00276389
0.166291
0.00478019
0.165535
0.00832205
0.164776
0.00619567
0.164149
0.00502315
0.16366
0.00433792
0.163256
0.00396216
0.162905
0.00382223
0.162586
0.00389454
0.162276
0.0041695
0.161956
0.00463467
0.161616
0.00530718
0.161248
0.00621972
0.160884
0.00742292
0.160527
0.00891369
0.160382
0.0106666
0.0187793
0.160219
0.0269175
-0.145726
1.44838e-06
0.0518442
-0.14103
0.0746233
-0.133918
0.0951318
-0.122244
0.113694
-0.113521
0.130462
-0.101147
0.145683
-0.0858577
0.159071
-0.0626028
0.171981
-0.0570567
0.183198
-0.0514935
0.193246
-0.052236
0.201853
-0.0574934
0.209102
-0.0536041
0.215577
-0.0432924
0.221286
-0.0159752
0.225781
0.0142418
0.228368
0.0521453
0.227197
0.0572516
0.222992
0.0456745
0.218034
0.0341927
0.213662
0.024864
0.210392
0.0162674
0.207997
0.0106812
0.206312
0.0067376
0.205137
0.00393987
0.204242
0.00567495
0.203408
0.00915573
0.202613
0.0069912
0.201931
0.00570431
0.201393
0.00487657
0.200962
0.0043929
0.200606
0.00417867
0.200303
0.00419737
0.200035
0.00443702
0.199787
0.00488252
0.199554
0.00554014
0.19934
0.00643404
0.199179
0.00758373
0.199101
0.00899157
0.199257
0.0105113
0.0185022
0.199534
0.0321897
-0.177917
1.49592e-06
0.061786
-0.170627
0.088636
-0.160768
0.112672
-0.14628
0.134256
-0.135105
0.153615
-0.120506
0.171074
-0.103317
0.186453
-0.0779818
0.201145
-0.071749
0.214051
-0.0643997
0.225624
-0.0638086
0.235524
-0.067394
0.243862
-0.0619421
0.251345
-0.050775
0.258173
-0.0228034
0.264107
0.00830821
0.268807
0.0474453
0.270368
0.05569
0.26855
0.047493
0.264913
0.0378296
0.260989
0.0287874
0.25772
0.0195372
0.255137
0.0132639
0.253195
0.00867991
0.251771
0.00536298
0.250702
0.00674476
0.249802
0.0100554
0.248999
0.00779388
0.248314
0.00638949
0.247771
0.00541956
0.247354
0.00481025
0.247034
0.00449832
0.246793
0.00443892
0.246615
0.00461421
0.246493
0.00500492
0.246426
0.0056074
0.246425
0.00643499
0.246525
0.00748335
0.246768
0.00874831
0.247259
0.0100204
0.0178261
0.247935
0.038588
-0.216507
1.55321e-06
0.0738655
-0.205904
0.105678
-0.19258
0.134012
-0.174615
0.159265
-0.160358
0.181743
-0.142984
0.201846
-0.12342
0.219518
-0.0956542
0.236138
-0.0883689
0.250802
-0.0790632
0.263951
-0.0769582
0.27526
-0.0787024
0.284851
-0.0715331
0.293495
-0.0594195
0.301522
-0.03083
0.308858
0.000971657
0.315463
0.0408408
0.319669
0.0514836
0.320697
0.0464658
0.319283
0.0392434
0.316694
0.0313765
0.314043
0.0221873
0.311697
0.0156106
0.309779
0.0105974
0.30829
0.00685222
0.307163
0.00787184
0.306272
0.010946
0.305527
0.00853947
0.304915
0.00700106
0.304448
0.00588641
0.30412
0.00513839
0.303913
0.00470581
0.303811
0.00454099
0.303805
0.00461974
0.303893
0.00491727
0.304079
0.00542132
0.304379
0.00613504
0.304825
0.00703733
0.305458
0.00811562
0.30635
0.00912836
0.0167271
0.307449
0.0463573
-0.262865
1.61667e-06
0.0885489
-0.248096
0.126412
-0.230443
0.159991
-0.208194
0.189719
-0.190086
0.215985
-0.16925
0.239273
-0.146707
0.259666
-0.116047
0.278494
-0.107197
0.295091
-0.0956604
0.309931
-0.0917981
0.32277
-0.0915411
0.333761
-0.082524
0.343698
-0.0693574
0.352993
-0.0401244
0.361712
-0.00774768
0.370009
0.032544
0.376574
0.0449186
0.380488
0.0425515
0.381868
0.0378636
0.381471
0.0317733
0.38022
0.0234384
0.378738
0.0170931
0.37733
0.0120054
0.376134
0.00804739
0.375213
0.00879312
0.374521
0.0116382
0.373977
0.00908363
0.373572
0.00740614
0.373311
0.0061476
0.373194
0.00525477
0.373216
0.00468415
0.373368
0.00438865
0.373648
0.00433967
0.374058
0.00450717
0.374608
0.0048721
0.375313
0.00542992
0.376201
0.00614897
0.377305
0.00701126
0.378675
0.00775873
0.0151406
0.380262
0.0558002
-0.318667
1.68283e-06
0.10641
-0.298705
0.151655
-0.275688
0.191639
-0.248178
0.226838
-0.225285
0.257735
-0.200148
0.284906
-0.173878
0.308594
-0.139735
0.330066
-0.128668
0.348914
-0.114508
0.365667
-0.108552
0.380216
-0.10609
0.392774
-0.0950816
0.404139
-0.0807229
0.414781
-0.0507665
0.42488
-0.0178466
0.43471
0.0227143
0.443307
0.0363215
0.449859
0.0359992
0.454172
0.0335513
0.456529
0.0294163
0.457396
0.0225716
0.457485
0.0170038
0.457217
0.0122739
0.456846
0.00841788
0.456561
0.00907868
0.456407
0.0117914
0.456335
0.00915576
0.456367
0.0073745
0.45652
0.0059948
0.456806
0.00496792
0.457234
0.00425637
0.457807
0.00381607
0.458529
0.00361729
0.459409
0.00362707
0.460459
0.00382225
0.461695
0.00419397
0.463139
0.00470519
0.464814
0.0053362
0.466752
0.00582084
0.0129777
0.468915
0.0672891
-0.385958
1.74884e-06
0.128156
-0.359572
0.182412
-0.329945
0.230226
-0.295991
0.272127
-0.267185
0.308707
-0.236729
0.340651
-0.205822
0.368379
-0.167464
0.393102
-0.153391
0.414679
-0.136086
0.433712
-0.127585
0.450252
-0.12263
0.464605
-0.109435
0.477573
-0.0936907
0.48968
-0.0628742
0.501195
-0.0293619
0.512483
0.0114269
0.522859
0.0259452
0.53171
0.0271481
0.538777
0.0264848
0.544058
0.0241351
0.547499
0.0191301
0.549756
0.0147475
0.551257
0.0107723
0.552317
0.00735762
0.553214
0.00818162
0.554076
0.0109299
0.554884
0.00834761
0.555707
0.00655188
0.556589
0.00511246
0.557565
0.00399225
0.558659
0.00316264
0.559889
0.00258585
0.561271
0.00223499
0.56282
0.0020779
0.564552
0.00209088
0.566481
0.00226435
0.568626
0.00256009
0.571003
0.00295963
0.57363
0.00319392
0.0101201
0.576487
0.0812787
-0.467239
1.81174e-06
0.154651
-0.432944
0.219919
-0.395213
0.277316
-0.353388
0.327439
-0.317308
0.37101
-0.2803
0.408843
-0.243655
0.441558
-0.200179
0.470329
-0.182161
0.495291
-0.161048
0.51713
-0.149424
0.536076
-0.141576
0.552555
-0.125914
0.567382
-0.108517
0.581148
-0.0766403
0.5942
-0.0424142
0.606975
-0.00134766
0.619007
0.0139132
0.629884
0.0162709
0.639414
0.0169545
0.647501
0.0160482
0.653659
0.0129729
0.658426
0.00997989
0.662169
0.00702978
0.665193
0.00433359
0.667815
0.005559
0.670214
0.00853121
0.672392
0.00616922
0.674458
0.0044868
0.676485
0.00308525
0.678532
0.00194518
0.680643
0.001051
0.682854
0.000375012
0.685192
-0.000102877
0.68768
-0.000410027
0.690338
-0.000567026
0.693183
-0.000580865
0.696231
-0.000487568
0.699493
-0.000302299
0.70298
-0.000293422
0.00640355
0.706697
0.0890502
-0.556291
1.70343e-06
0.169353
-0.513247
0.240679
-0.466539
0.303309
-0.416018
0.357865
-0.371865
0.405142
-0.327576
0.44602
-0.284534
0.481265
-0.235424
0.511939
-0.212836
0.538415
-0.187524
0.56141
-0.172419
0.581299
-0.161465
0.598601
-0.143216
0.614087
-0.124003
0.628373
-0.0909262
0.641846
-0.0558878
0.654961
-0.0144621
0.667428
0.00144607
0.679027
0.0046716
0.689684
0.00629719
0.699333
0.00639923
0.707266
0.00504011
0.713895
0.00335113
0.719476
0.00144819
0.724252
-0.000441948
0.728508
0.00130327
0.732422
0.00461726
0.736001
0.00259038
0.739361
0.00112638
0.74259
-0.00014381
0.745757
-0.00122192
0.748918
-0.00210966
0.752116
-0.0028234
0.755388
-0.00337447
0.758761
-0.00378321
0.762259
-0.00406479
0.765899
-0.00422161
0.769698
-0.00428569
0.773663
-0.00426796
0.777804
-0.00443395
0.0020597
0.782148
0.0956805
-0.651973
1.58243e-06
0.181898
-0.599464
0.258403
-0.543045
0.325511
-0.483126
0.383868
-0.430222
0.434328
-0.378035
0.47783
-0.328036
0.515254
-0.272847
0.547587
-0.245169
0.575382
-0.215318
0.599381
-0.196418
0.62007
-0.182154
0.638045
-0.16119
0.654046
-0.140004
0.668712
-0.105592
0.682463
-0.0696382
0.695762
-0.0277613
0.708439
-0.0112308
0.720398
-0.00728728
0.73166
-0.00496508
0.742222
-0.00416257
0.751289
-0.00402732
0.759203
-0.00456231
0.766143
-0.00549244
0.772292
-0.00659125
0.777892
-0.00429635
0.783103
-0.000593261
0.787925
-0.00223204
0.792469
-0.00341782
0.796821
-0.00449523
0.80105
-0.00545113
0.805215
-0.00627461
0.809363
-0.00697113
0.813531
-0.00754317
0.817752
-0.00800349
0.822048
-0.00836106
0.826439
-0.00861301
0.83094
-0.00878661
0.835561
-0.00888845
0.840307
-0.00917996
-0.00286076
0.845227
0.10295
-0.754924
1.48199e-06
0.195667
-0.692181
0.277888
-0.625265
0.349958
-0.555196
0.412556
-0.49282
0.466601
-0.43208
0.513098
-0.374533
0.553032
-0.312782
0.587356
-0.279493
0.616771
-0.244733
0.642054
-0.221701
0.663785
-0.203885
0.682631
-0.180036
0.699323
-0.156696
0.714531
-0.120801
0.728706
-0.0838131
0.742326
-0.0413817
0.755299
-0.0242034
0.767611
-0.0195999
0.779357
-0.0167109
0.790592
-0.0153976
0.80049
-0.0139254
0.809364
-0.0134356
0.817352
-0.0134811
0.824599
-0.0138377
0.831309
-0.011006
0.837623
-0.00690758
0.843535
-0.00814425
0.849143
-0.00902603
0.854526
-0.00987755
0.859748
-0.0106738
0.864867
-0.0113933
0.869928
-0.0120318
0.874968
-0.0125835
0.880018
-0.013054
0.885104
-0.0134462
0.890243
-0.0137519
0.89545
-0.0139937
0.900735
-0.014174
0.906105
-0.0145494
-0.00837936
0.911623
0.110897
-0.865823
1.39632e-06
0.210734
-0.792018
0.29923
-0.713761
0.376764
-0.63273
0.444054
-0.56011
0.502086
-0.490113
0.55194
-0.424386
0.594706
-0.355548
0.631328
-0.316115
0.662637
-0.276043
0.689454
-0.248517
0.712442
-0.226873
0.732338
-0.199933
0.749882
-0.17424
0.765782
-0.136701
0.780522
-0.0985527
0.7946
-0.0554598
0.807974
-0.0375771
0.82069
-0.0323168
0.832899
-0.0289196
0.844706
-0.0272049
0.855275
-0.0244939
0.864912
-0.0230727
0.873739
-0.0223085
0.881878
-0.0219763
0.889508
-0.0186365
0.896757
-0.0141561
0.90361
-0.0149969
0.910153
-0.0155697
0.916458
-0.016182
0.922583
-0.0167991
0.92858
-0.0173905
0.934492
-0.0179437
0.940355
-0.0184456
0.946196
-0.0188952
0.952039
-0.0192897
0.957903
-0.0196162
0.963802
-0.0198928
0.969747
-0.0201181
0.975741
-0.0205436
-0.014502
0.981863
0.119574
-0.985398
1.32173e-06
0.227194
-0.899638
0.322561
-0.809129
0.406088
-0.716256
0.478538
-0.63256
0.540974
-0.552549
0.594555
-0.477966
0.640475
-0.401469
0.679692
-0.355332
0.713159
-0.309509
0.741745
-0.277103
0.766193
-0.251321
0.787313
-0.221052
0.805862
-0.19279
0.822596
-0.153434
0.838032
-0.113989
0.852696
-0.0701238
0.86658
-0.051461
0.879776
-0.0455127
0.892476
-0.0416201
0.90483
-0.0395594
0.915996
-0.0356596
0.926288
-0.0333648
0.935823
-0.0318437
0.944713
-0.0308656
0.953123
-0.0270462
0.961169
-0.0222023
0.968833
-0.0226614
0.976194
-0.0229306
0.983314
-0.0233017
0.990246
-0.0237318
0.997038
-0.0241824
1.00373
-0.0246338
1.01035
-0.0250664
1.01693
-0.0254732
1.02348
-0.0258466
1.03004
-0.0261693
1.0366
-0.0264552
1.04318
-0.0266998
1.04979
-0.0271489
-0.0212197
1.0565
0.129038
-1.11444
1.25531e-06
0.245156
-1.01576
0.348035
-0.912007
0.438121
-0.806342
0.516231
-0.71067
0.583509
-0.619828
0.6412
-0.535658
0.69061
-0.450879
0.732724
-0.397445
0.76861
-0.345396
0.799196
-0.307689
0.825304
-0.277429
0.847816
-0.243564
0.867519
-0.212493
0.885221
-0.171136
0.901478
-0.130246
0.916846
-0.0854923
0.931345
-0.0659597
0.9451
-0.0592682
0.958343
-0.0548626
0.971258
-0.0524746
0.982998
-0.0473997
0.993892
-0.0442585
1.00406
-0.0420105
1.01361
-0.0404145
1.0227
-0.0361366
1.03144
-0.0309454
1.03982
-0.0310365
1.0479
-0.0310101
1.05574
-0.0311429
1.06339
-0.031384
1.07089
-0.0316879
1.07829
-0.032028
1.0856
-0.032379
1.09286
-0.0327286
1.10007
-0.0330645
1.10727
-0.0333656
1.11446
-0.0336423
1.12165
-0.0338868
1.12884
-0.0343395
-0.028511
1.13613
0.13936
-1.2538
1.19532e-06
0.264751
-1.14115
0.375832
-1.02309
0.473088
-0.903598
0.557393
-0.794976
0.629982
-0.692417
0.692192
-0.597868
0.745445
-0.504131
0.790766
-0.442766
0.829342
-0.383972
0.862163
-0.34051
0.890131
-0.305397
0.914205
-0.267637
0.935211
-0.233499
0.954012
-0.189937
0.971209
-0.147443
0.987394
-0.101677
1.00261
-0.0811717
1.017
-0.0736634
1.03084
-0.0687048
1.04435
-0.0659814
1.05667
-0.0597171
1.06814
-0.0557324
1.0789
-0.052767
1.08905
-0.0505654
1.09875
-0.0458405
1.10812
-0.0403121
1.11713
-0.0400446
1.12585
-0.0397288
1.13433
-0.0396265
1.14263
-0.0396787
1.15077
-0.039833
1.1588
-0.0400565
1.16674
-0.0403182
1.17461
-0.040601
1.18243
-0.0408881
1.19022
-0.0411553
1.19799
-0.0414092
1.20574
-0.0416396
1.21348
-0.042081
-0.0363455
1.22132
0.150617
-1.40442
1.14003e-06
0.286124
-1.27665
0.406158
-1.14312
0.511245
-1.00869
0.602326
-0.886056
0.680729
-0.77082
0.747897
-0.665036
0.80537
-0.561605
0.854229
-0.491626
0.895778
-0.425521
0.931078
-0.375809
0.961113
-0.335432
0.986922
-0.293447
1.00938
-0.255958
1.02941
-0.20997
1.04767
-0.165698
1.06478
-0.118786
1.0808
-0.0971904
1.09591
-0.0887749
1.11041
-0.0832047
1.12454
-0.0801169
1.13745
-0.0726271
1.1495
-0.0677818
1.16083
-0.0640913
1.17154
-0.0612822
1.18181
-0.0561116
1.19175
-0.050249
1.20133
-0.0496257
1.21063
-0.049023
1.21969
-0.0486866
1.22856
-0.0485494
1.23728
-0.0485519
1.24587
-0.0486549
1.25438
-0.048822
1.26281
-0.0490311
1.27118
-0.0492617
1.27951
-0.0494859
1.28781
-0.0497074
1.29608
-0.0499134
1.30434
-0.0503325
-0.0446856
1.31268
0.162894
-1.56731
1.08912e-06
0.309437
-1.4232
0.439243
-1.27293
0.552884
-1.12233
0.65137
-0.984542
0.736135
-0.855585
0.808734
-0.737634
0.870836
-0.623707
0.923585
-0.544375
0.968409
-0.470344
1.00644
-0.413845
1.03876
-0.367752
1.06649
-0.321175
1.09056
-0.280024
1.11196
-0.23137
1.13139
-0.185126
1.14952
-0.136921
1.16644
-0.114105
1.18234
-0.104675
1.19755
-0.0984177
1.21235
-0.0949181
1.22587
-0.0861491
1.2385
-0.0804094
1.25038
-0.0759713
1.26164
-0.0725399
1.27244
-0.0669153
1.28291
-0.0607143
1.29301
-0.0597314
1.30283
-0.058839
1.31241
-0.0582661
1.32179
-0.0579369
1.33103
-0.0577845
1.34014
-0.0577631
1.34914
-0.0578309
1.35807
-0.0579611
1.36694
-0.0581289
1.37576
-0.0583035
1.38454
-0.0584854
1.39328
-0.0586594
1.402
-0.0590479
-0.0534878
1.4108
0.176288
-1.7436
1.04086e-06
0.334876
-1.58179
0.475349
-1.4134
0.59833
-1.24531
0.704909
-1.09112
0.796634
-0.94731
0.87518
-0.81618
0.942353
-0.69088
0.999374
-0.601395
1.0478
-0.518766
1.08884
-0.454891
1.12368
-0.402587
1.15352
-0.351016
1.17935
-0.305861
1.20226
-0.254273
1.22298
-0.205846
1.24224
-0.156186
1.26014
-0.132
1.27689
-0.121432
1.29287
-0.114395
1.30837
-0.110419
1.32252
-0.100301
1.33573
-0.0936194
1.34816
-0.088398
1.35994
-0.0843182
1.37125
-0.0782223
1.3822
-0.0716715
1.39279
-0.0703182
1.40308
-0.069128
1.41313
-0.0683122
1.42297
-0.0677854
1.43266
-0.0674731
1.44222
-0.0673224
1.45168
-0.067286
1.46105
-0.0673321
1.47035
-0.0674319
1.4796
-0.0675514
1.4888
-0.0676878
1.49797
-0.0678237
1.50709
-0.0681751
-0.0627022
1.51631
0.190909
-1.93451
9.95828e-07
0.362644
-1.75352
0.514766
-1.56552
0.647951
-1.37849
0.763377
-1.20655
0.862713
-1.04665
0.947769
-0.901236
1.0205
-0.76361
1.0822
-0.6631
1.13457
-0.571137
1.17893
-0.499246
1.21653
-0.440186
1.24869
-0.383175
1.27647
-0.33364
1.30102
-0.278824
1.32315
-0.227979
1.34365
-0.176682
1.36261
-0.15096
1.38028
-0.139111
1.39707
-0.131182
1.4133
-0.126646
1.4281
-0.115098
1.44189
-0.107413
1.45485
-0.10136
1.46713
-0.0965953
1.47891
-0.0900026
1.49032
-0.0830838
1.50135
-0.0813427
1.51206
-0.0798414
1.52252
-0.0787718
1.53277
-0.0780386
1.54286
-0.0775588
1.55281
-0.0772723
1.56265
-0.0771258
1.5724
-0.0770822
1.58207
-0.0771086
1.59169
-0.0771677
1.60126
-0.0772536
1.61078
-0.0773464
1.62026
-0.0776553
-0.0722715
1.62983
0.206878
-2.14139
9.52186e-07
0.392972
-1.93961
0.55782
-1.73037
0.702157
-1.52283
0.827255
-1.33164
0.934919
-1.15431
1.0271
-0.993418
1.10592
-0.842424
1.17276
-0.729943
1.22946
-0.627841
1.27745
-0.547232
1.31808
-0.480819
1.35278
-0.417876
1.38269
-0.363546
1.40904
-0.305176
1.43271
-0.251649
1.45454
-0.198513
1.47464
-0.171064
1.4933
-0.157769
1.51094
-0.148818
1.52792
-0.143622
1.54336
-0.130547
1.55774
-0.121784
1.57122
-0.114842
1.58397
-0.109345
1.59618
-0.102221
1.60801
-0.0949099
1.61943
-0.092757
1.63051
-0.0909256
1.64132
-0.0895871
1.65192
-0.0886352
1.66234
-0.0879776
1.67261
-0.0875466
1.68277
-0.0872825
1.69283
-0.0871427
1.70281
-0.0870898
1.71273
-0.0870832
1.72259
-0.0871135
1.7324
-0.0871584
1.74216
-0.08742
-0.0821287
1.75202
0.224328
-2.36572
9.11161e-07
0.426116
-2.1414
0.604874
-1.90913
0.761405
-1.67936
0.897085
-1.46732
1.01387
-1.27109
1.11386
-1.09341
1.19934
-0.927906
1.27181
-0.802417
1.33327
-0.689297
1.38524
-0.5992
1.42919
-0.524777
1.46668
-0.455359
1.49891
-0.395775
1.52722
-0.333489
1.55256
-0.276988
1.57583
-0.221783
1.59716
-0.192393
1.61685
-0.177464
1.63537
-0.167337
1.65311
-0.161357
1.6692
-0.146646
1.68414
-0.136718
1.69811
-0.128816
1.7113
-0.122531
1.72391
-0.114835
1.7361
-0.1071
1.74785
-0.104504
1.75924
-0.102319
1.77035
-0.100692
1.78122
-0.0995046
1.7919
-0.0986561
1.80242
-0.0980695
1.81281
-0.0976785
1.82311
-0.0974345
1.83331
-0.0972956
1.84345
-0.0972174
1.85352
-0.0971869
1.86354
-0.0971793
1.87351
-0.0973889
-0.0921947
1.88358
0.243413
-2.60913
8.70549e-07
0.462363
-2.36035
0.656338
-2.1031
0.826211
-1.84923
0.973476
-1.61459
1.10024
-1.39786
1.20878
-1.20195
1.30157
-1.0207
1.38023
-0.88107
1.44689
-0.755965
1.50323
-0.655537
1.55083
-0.572381
1.59136
-0.495887
1.62613
-0.430542
1.65658
-0.363937
1.68372
-0.304131
1.70854
-0.2466
1.73117
-0.215025
1.75195
-0.198244
1.77137
-0.186762
1.78987
-0.179851
1.8066
-0.163382
1.82208
-0.15219
1.83651
-0.143247
1.85008
-0.136106
1.86303
-0.127788
1.87552
-0.11959
1.88754
-0.116516
1.89916
-0.113946
1.91048
-0.112005
1.92154
-0.110564
1.93239
-0.109507
1.94307
-0.108752
1.95361
-0.108222
1.96404
-0.107865
1.97438
-0.107632
1.98464
-0.107475
1.99483
-0.107378
2.00496
-0.107313
2.01504
-0.107466
-0.102374
2.02522
0.2643
-2.87343
8.31856e-07
0.502035
-2.59809
0.712667
-2.31374
0.89715
-2.03372
1.0571
-1.77454
1.19481
-1.53556
1.31273
-1.31987
1.41354
-1.1215
1.49897
-0.966502
1.57136
-0.828354
1.63249
-0.716666
1.68409
-0.623979
1.72795
-0.539747
1.76548
-0.468078
1.79825
-0.396703
1.82734
-0.333224
1.85381
-0.273074
1.87782
-0.239036
1.89973
-0.220154
1.92008
-0.207108
1.93932
-0.199091
1.95667
-0.180729
1.97264
-0.16816
1.98747
-0.15808
2.00137
-0.150007
2.01459
-0.141008
2.02731
-0.132303
2.03949
-0.128705
2.05126
-0.125715
2.06269
-0.123432
2.07384
-0.121711
2.08476
-0.120427
2.09549
-0.119486
2.10607
-0.118805
2.11653
-0.118322
2.12689
-0.117986
2.13715
-0.117743
2.14735
-0.117573
2.15748
-0.117445
2.16755
-0.117536
-0.112553
2.17773
0.28718
-3.16061
7.92951e-07
0.545492
-2.8564
0.774372
-2.54262
0.974867
-2.23421
1.14873
-1.94841
1.29844
-1.68527
1.42666
-1.44808
1.53626
-1.2311
1.62913
-1.05938
1.7078
-0.907022
1.77419
-0.783054
1.83017
-0.679958
1.87767
-0.587252
1.91823
-0.508633
1.95351
-0.431986
1.98471
-0.364419
2.01295
-0.301316
2.03841
-0.2645
2.06149
-0.243231
2.08276
-0.228379
2.10272
-0.219051
2.12064
-0.198646
2.13705
-0.184569
2.15221
-0.173246
2.16636
-0.164151
2.17975
-0.154403
2.19259
-0.145138
2.20485
-0.140965
2.21665
-0.137513
2.22807
-0.134853
2.23918
-0.132824
2.25004
-0.131289
2.2607
-0.130142
2.27119
-0.129293
2.28154
-0.128672
2.29177
-0.128221
2.30191
-0.127883
2.31197
-0.127632
2.32196
-0.127435
2.33189
-0.127459
-0.122592
2.34193
0.312266
-3.47288
7.55106e-07
0.593136
-3.13727
0.842028
-2.79151
1.06009
-2.45227
1.24922
-2.13754
1.4121
-1.84816
1.55162
-1.5876
1.67089
-1.35037
1.77194
-1.16043
1.85751
-0.992589
1.92967
-0.855218
1.99045
-0.740742
2.04195
-0.638746
2.0858
-0.552483
2.12381
-0.470001
2.15727
-0.397878
2.1874
-0.331445
2.21439
-0.291488
2.23866
-0.267506
2.26085
-0.250566
2.28148
-0.239683
2.2999
-0.217068
2.31667
-0.201339
2.33208
-0.188652
2.34636
-0.178433
2.35982
-0.167858
2.37265
-0.157971
2.38485
-0.153165
2.39654
-0.149202
2.40781
-0.146124
2.41874
-0.143753
2.42939
-0.141938
2.43981
-0.140563
2.45004
-0.139526
2.46012
-0.138752
2.47007
-0.138173
2.47992
-0.137729
2.48968
-0.13739
2.49936
-0.137117
2.50897
-0.137067
-0.132323
2.5187
0.339796
-3.81268
7.16472e-07
0.645423
-3.4429
0.916278
-3.06236
1.15362
-2.68961
1.35952
-2.34345
1.53688
-2.02552
1.68882
-1.73954
1.81872
-1.48027
1.92876
-1.27048
2.02191
-1.08574
2.10043
-0.933728
2.16648
-0.806799
2.22234
-0.694609
2.26979
-0.599926
2.31077
-0.510979
2.34666
-0.433772
2.37879
-0.363577
2.40737
-0.320068
2.43286
-0.292996
2.45594
-0.273641
2.47718
-0.260919
2.49602
-0.235912
2.51305
-0.218366
2.52857
-0.204177
2.54286
-0.19272
2.55623
-0.181229
2.56891
-0.170649
2.58088
-0.16514
2.59229
-0.16061
2.60323
-0.157067
2.6138
-0.154315
2.62405
-0.152188
2.63404
-0.150558
2.64383
-0.149312
2.65344
-0.148364
2.66291
-0.147644
2.67226
-0.147082
2.68151
-0.146643
2.69068
-0.146286
2.69977
-0.146157
-0.141545
2.709
0.370038
-4.18272
6.78102e-07
0.70286
-3.77572
0.997846
-3.35735
1.25638
-2.94815
1.48072
-2.56778
1.674
-2.21881
1.83961
-1.90515
1.9812
-1.62185
2.10115
-1.39042
2.20265
-1.18724
2.28814
-1.01922
2.35999
-0.878647
2.42063
-0.755257
2.472
-0.651292
2.51619
-0.555172
2.5547
-0.472284
2.58896
-0.397836
2.6192
-0.350304
2.64591
-0.319709
2.66983
-0.297561
2.69158
-0.282664
2.71073
-0.255065
2.72788
-0.235517
2.74337
-0.219671
2.7575
-0.206845
2.77061
-0.194335
2.78294
-0.182981
2.79449
-0.176691
2.80541
-0.171529
2.81581
-0.167467
2.82578
-0.164289
2.83541
-0.161813
2.84475
-0.159895
2.85385
-0.158414
2.86276
-0.157273
2.87151
-0.156393
2.88012
-0.155699
2.88863
-0.15515
2.89704
-0.1547
2.90537
-0.154484
-0.150012
2.91384
0.403295
-4.58601
6.38532e-07
0.766021
-4.13844
1.08755
-3.67887
1.36939
-3.22999
1.61402
-2.81241
1.82484
-2.42963
2.00551
-2.08581
2.15998
-1.77633
2.29084
-1.52127
2.40153
-1.29794
2.4947
-1.11239
2.57292
-0.956861
2.63881
-0.821152
2.69446
-0.70694
2.74214
-0.602851
2.78346
-0.513607
2.81997
-0.434345
2.85192
-0.382252
2.87985
-0.347638
2.90454
-0.322256
2.92667
-0.304793
2.94599
-0.27438
2.96309
-0.252624
2.97837
-0.234945
2.99213
-0.220603
3.00475
-0.206958
3.0165