/*--------------------------------*- C++ -*----------------------------------*\
  =========                 |
  \\      /  F ield         | OpenFOAM: The Open Source CFD Toolbox
   \\    /   O peration     | Website:  https://openfoam.org
    \\  /    A nd           | Version:  11
     \\/     M anipulation  |
\*---------------------------------------------------------------------------*/
FoamFile
{
    format      ascii;
    class       volVectorField;
    location    "250";
    object      U;
}
// * * * * * * * * * * * * * * * * * * * * * * * * * * * * * * * * * * * * * //

dimensions      [0 1 -1 0 0 0 0];

internalField   nonuniform List<vector> 
11040
(
(1.6219 2.09329 7.55286e-18)
(2.19244 6.41607 -1.65466e-17)
(3.78835 10.8822 -1.80035e-17)
(6.36227 14.7413 2.29647e-17)
(9.63194 17.9369 -1.18079e-17)
(13.6794 20.2062 4.31738e-18)
(18.1184 21.1092 0)
(21.2671 19.2178 -6.99013e-18)
(22.5588 16.561 0)
(23.4494 15.0943 -1.51015e-17)
(24.609 14.8344 0)
(26.6944 15.8874 0)
(30.245 17.0554 3.42748e-17)
(34.9032 16.8709 0)
(37.8988 13.1924 0)
(36.6836 6.79166 0)
(28.8892 -0.667902 0)
(21.407 -4.46431 5.94226e-17)
(18.8606 -4.83992 4.65309e-17)
(18.9824 -4.24427 -3.69592e-17)
(19.3647 -3.85244 3.11606e-17)
(19.3831 -3.65592 -8.97737e-19)
(19.2278 -3.5313 -2.38197e-17)
(19.0627 -3.43711 2.64887e-19)
(19.0274 -3.36816 0)
(18.8755 -3.46179 0)
(18.0579 -3.64823 0)
(17.2752 -3.64539 0)
(16.7829 -3.54847 2.0588e-17)
(16.4252 -3.45181 0)
(16.0644 -3.36251 0)
(15.6814 -3.27336 5.2498e-20)
(15.2859 -3.1829 1.3632e-20)
(14.8746 -3.0907 -1.3868e-20)
(14.4347 -2.99427 1.08722e-18)
(13.9566 -2.89084 -3.18658e-18)
(13.4117 -2.77457 -5.32389e-18)
(12.8043 -2.64379 -6.19814e-20)
(11.9752 -2.47232 3.71143e-20)
(11.2458 -2.2542 0)
(8.53753 -2.03196 1.92524e-17)
(2.78976 1.98576 -1.16123e-18)
(3.50733 5.94489 -6.7836e-19)
(5.26138 9.85273 -1.13127e-17)
(8.0151 13.1777 -4.59456e-18)
(11.3955 15.8454 0)
(15.5949 17.5189 1.0938e-18)
(20.0825 17.7229 4.27476e-19)
(24.0456 16.2438 2.27484e-18)
(25.7481 14.7636 -9.78387e-18)
(26.3184 14.3241 -9.89802e-20)
(27.0793 14.5762 -2.33792e-19)
(28.7003 15.6323 7.91882e-19)
(32.0284 15.9714 0)
(36.5436 14.219 0)
(40.7771 9.26384 0)
(43.1237 3.60228 9.19557e-18)
(39.9553 -2.57778 1.8302e-18)
(33.2532 -4.69664 -3.19307e-17)
(27.9674 -4.33607 -2.0845e-17)
(25.2289 -3.9687 -4.73535e-19)
(23.8909 -3.86866 -1.73082e-17)
(23.0501 -3.78747 1.56276e-17)
(22.4475 -3.70239 -4.71552e-19)
(22.0028 -3.64379 -9.01127e-20)
(21.7395 -3.62355 -1.16487e-17)
(21.4965 -3.81698 3.25458e-19)
(20.9156 -4.08 -1.01671e-17)
(20.1105 -3.9666 -1.09491e-19)
(19.4833 -3.82213 -6.16907e-18)
(18.9848 -3.72519 0)
(18.5236 -3.63881 0)
(18.0781 -3.55039 -5.80674e-18)
(17.645 -3.46118 3.64489e-20)
(17.214 -3.37043 5.81473e-19)
(16.7708 -3.27457 -5.51927e-20)
(16.3068 -3.1707 0)
(15.7975 -3.05368 3.2458e-18)
(15.26 -2.9211 -1.54324e-20)
(14.536 -2.74631 -6.18204e-18)
(14.0264 -2.5269 0)
(12.1217 -2.28603 -1.97503e-17)
(4.43197 1.81236 0)
(5.14843 5.41491 4.83152e-18)
(6.716 8.92221 3.8556e-18)
(9.05417 11.9938 1.01072e-17)
(11.9667 14.4905 -5.62957e-19)
(15.5024 16.206 4.45319e-18)
(19.3026 16.8297 -5.20783e-19)
(22.6209 16.1276 9.25098e-19)
(24.5724 15.174 1.71487e-18)
(25.6805 14.7775 -7.67525e-18)
(26.8613 14.801 0)
(28.7135 15.3556 -8.61371e-19)
(31.8293 15.3647 1.61847e-17)
(35.8907 13.8265 -2.12604e-17)
(39.4462 9.55214 0)
(41.487 4.27795 -7.3096e-18)
(40.749 -1.85062 1.37981e-18)
(36.8779 -4.4566 2.04442e-17)
(32.6855 -4.68083 -1.74573e-17)
(29.7001 -4.5384 1.42232e-17)
(27.7392 -4.42445 1.19947e-17)
(26.3495 -4.28186 -1.08319e-17)
(25.3444 -4.14859 0)
(24.6071 -4.05915 9.45735e-18)
(24.1153 -4.01687 8.92056e-18)
(23.6695 -4.16416 -5.0524e-19)
(22.9453 -4.37679 7.52288e-18)
(22.1425 -4.28797 -1.64317e-19)
(21.484 -4.16459 4.93827e-18)
(20.9412 -4.07153 -3.91225e-18)
(20.4356 -3.97853 3.06358e-18)
(19.9446 -3.87982 2.149e-18)
(19.4669 -3.7794 -1.33878e-18)
(18.9949 -3.67676 -4.1391e-19)
(18.5153 -3.56829 -4.62017e-19)
(18.019 -3.45043 1.34788e-18)
(17.4825 -3.31829 -1.43196e-20)
(16.9202 -3.16399 0)
(16.196 -2.9738 8.46258e-20)
(15.6318 -2.69625 -3.24694e-20)
(14.038 -2.41796 6.8623e-18)
(6.22552 1.63527 0)
(6.89165 4.89369 -1.2264e-18)
(8.26741 8.02783 -2.9442e-18)
(10.275 10.8089 -7.92971e-18)
(12.8113 13.0872 2.21227e-18)
(15.8505 14.7294 -5.7107e-18)
(19.1349 15.5149 -2.05929e-18)
(22.0874 15.2863 1.24277e-18)
(24.1903 14.5816 4.89598e-18)
(25.5836 14.1749 1.02028e-17)
(26.9087 14.1629 -1.63288e-18)
(28.7574 14.5369 -3.88823e-19)
(31.5536 14.4604 2.63082e-19)
(35.1182 13.1066 1.89291e-17)
(38.3651 9.52428 -2.29894e-18)
(40.0984 4.88415 0)
(39.6586 -0.705972 -2.13678e-18)
(37.0445 -3.8112 2.47414e-18)
(33.9905 -4.51247 2.83829e-17)
(31.6741 -4.54845 -6.78121e-19)
(29.9727 -4.5245 1.05106e-17)
(28.596 -4.44551 6.3711e-19)
(27.4892 -4.34405 0)
(26.6148 -4.26811 0)
(25.9737 -4.2275 -7.42878e-18)
(25.4099 -4.34852 4.21e-19)
(24.6351 -4.54961 -5.73467e-18)
(23.808 -4.49932 0)
(23.1128 -4.38399 -3.66153e-18)
(22.536 -4.28692 2.88947e-18)
(22.0034 -4.19119 -4.8396e-18)
(21.4881 -4.08943 -1.69577e-18)
(20.9878 -3.98451 1.0386e-18)
(20.4957 -3.87604 0)
(19.9997 -3.76054 0)
(19.4911 -3.63379 -4.49392e-20)
(18.9483 -3.49113 0)
(18.3837 -3.32069 0)
(17.6802 -3.11705 3.45065e-18)
(17.1087 -2.79868 -4.89362e-20)
(15.7128 -2.49068 1.82074e-20)
(8.07604 1.45992 -2.66076e-19)
(8.68625 4.37731 0)
(9.88303 7.14837 3.10344e-18)
(11.588 9.62936 -1.08997e-18)
(13.7479 11.6935 4.55216e-18)
(16.3145 13.2577 -5.53771e-18)
(19.1005 14.1659 2.48399e-18)
(21.6958 14.3323 -1.69234e-19)
(23.8197 13.9831 0)
(25.4 13.6991 -4.97309e-19)
(26.8349 13.6572 5.92759e-18)
(28.6649 13.8161 4.58456e-18)
(31.1838 13.5827 -8.9329e-18)
(34.2841 12.333 0)
(37.2238 9.31891 -1.4298e-17)
(38.9896 5.24075 0)
(38.7378 0.238363 6.99997e-18)
(36.6202 -3.02552 -2.20972e-19)
(34.0329 -4.05682 -1.01303e-18)
(32.0884 -4.26147 2.5557e-18)
(30.7264 -4.36009 -9.86485e-18)
(29.6209 -4.38544 -8.96958e-18)
(28.6805 -4.35203 9.64405e-19)
(27.8842 -4.31946 0)
(27.2487 -4.30663 6.25659e-18)
(26.6789 -4.41914 -6.6816e-19)
(25.9478 -4.61506 5.07636e-18)
(25.1561 -4.60614 -2.21419e-19)
(24.4623 -4.50856 4.05135e-19)
(23.8756 -4.41748 -2.6562e-18)
(23.3363 -4.32749 1.76096e-18)
(22.8168 -4.22895 1.5924e-18)
(22.3129 -4.12409 -1.77273e-20)
(21.8188 -4.01348 -2.20892e-20)
(21.3232 -3.89401 2.34917e-21)
(20.8184 -3.7609 -1.6608e-20)
(20.2851 -3.60966 -5.96956e-20)
(19.7352 -3.4254 2.63475e-20)
(19.07 -3.20819 -2.6024e-18)
(18.5219 -2.86088 0)
(17.3326 -2.52519 3.73145e-18)
(9.94 1.28809 9.85829e-19)
(10.4921 3.87183 -6.97357e-19)
(11.52 6.29607 2.12203e-18)
(12.9498 8.48013 -3.73865e-18)
(14.7554 10.3296 -2.49842e-18)
(16.8909 11.7969 9.0645e-18)
(19.2217 12.7754 2.03202e-18)
(21.4603 13.2298 4.98699e-19)
(23.5036 13.2135 0)
(25.2047 13.0733 -4.88932e-18)
(26.7364 13.0088 -4.75067e-18)
(28.5325 12.9976 -2.47939e-18)
(30.7885 12.645 2.82205e-18)
(33.4521 11.5053 1.84476e-18)
(36.0461 9.02904 1.21053e-17)
(37.8403 5.59133 -2.52263e-18)
(37.9712 1.20034 -3.23009e-18)
(36.3358 -2.10738 -2.2118e-17)
(34.0117 -3.49341 -9.74763e-18)
(32.1326 -3.90409 1.9014e-18)
(30.8542 -4.10389 4.48068e-18)
(29.89 -4.20933 7.60738e-18)
(29.0944 -4.23607 -6.10082e-18)
(28.4186 -4.24624 0)
(27.861 -4.26593 0)
(27.3608 -4.37621 0)
(26.746 -4.56466 3.95937e-18)
(26.0552 -4.59822 0)
(25.4183 -4.53198 0)
(24.8653 -4.45651 2.18877e-18)
(24.3548 -4.37853 0)
(23.8615 -4.28898 -1.28324e-18)
(23.381 -4.18938 8.15195e-19)
(22.909 -4.08118 0)
(22.4363 -3.96186 0)
(21.9565 -3.8263 -6.43277e-19)
(21.4535 -3.67013 2.60089e-20)
(20.9387 -3.47677 1.55878e-18)
(20.3336 -3.24946 2.09677e-18)
(19.8302 -2.88871 -2.58472e-18)
(18.8633 -2.53818 -3.01584e-18)
(11.78 1.12232 0)
(12.2731 3.38622 0)
(13.145 5.48464 1.6285e-18)
(14.3297 7.38304 1.26375e-18)
(15.8147 9.01945 0)
(17.565 10.3723 -3.35391e-18)
(19.4879 11.3718 -4.85605e-19)
(21.3858 12.0068 -1.77403e-18)
(23.2664 12.2591 6.52779e-19)
(24.9931 12.2809 -2.36068e-20)
(26.5775 12.2346 0)
(28.3192 12.1182 2.08774e-18)
(30.3346 11.6909 -1.43819e-17)
(32.6096 10.6599 6.26644e-18)
(34.866 8.65308 4.04887e-18)
(36.6111 5.84441 8.73424e-18)
(37.1351 2.12403 -6.44908e-18)
(36.0768 -1.09713 6.68858e-18)
(34.1069 -2.81199 -8.0922e-18)
(32.2765 -3.47504 0)
(30.9629 -3.79078 -6.06346e-18)
(30.0056 -3.97406 -5.644e-18)
(29.2466 -4.05908 1.01903e-17)
(28.6152 -4.10727 0)
(28.0939 -4.15412 4.19876e-18)
(27.6362 -4.26006 3.74511e-18)
(27.1166 -4.43094 3.57895e-19)
(26.5293 -4.49587 -7.08632e-20)
(25.9673 -4.46311 -3.26863e-19)
(25.4693 -4.40608 0)
(25.0089 -4.342 0)
(24.5629 -4.26453 1.07218e-18)
(24.1264 -4.17378 1.44149e-20)
(23.6965 -4.07133 3.78362e-19)
(23.2664 -3.95535 0)
(22.831 -3.82071 -4.07122e-19)
(22.3779 -3.6631 -3.19467e-20)
(21.9177 -3.46588 -1.23111e-18)
(21.3937 -3.23323 1.53686e-18)
(20.953 -2.87575 2.15163e-18)
(20.2137 -2.5229 0)
(13.5592 0.965381 0)
(13.994 2.92915 -1.46843e-18)
(14.7257 4.72678 2.50547e-18)
(15.6973 6.35709 -6.98813e-18)
(16.9025 7.78565 3.55682e-18)
(18.3186 9.00871 2.77412e-18)
(19.8851 9.98352 0)
(21.4687 10.7071 1.20015e-18)
(23.1331 11.1464 0)
(24.7906 11.3218 3.96036e-19)
(26.3656 11.3257 -1.11801e-18)
(28.0283 11.1637 1.05519e-18)
(29.8249 10.7096 3.82627e-18)
(31.7632 9.79312 1.69604e-18)
(33.704 8.18555 -6.39108e-19)
(35.3341 5.94499 -9.58138e-18)
(36.1482 2.91132 4.27721e-19)
(35.6726 -0.0623281 0)
(34.1781 -2.00252 3.66544e-18)
(32.5084 -2.94009 6.25617e-19)
(31.1805 -3.40694 5.18067e-18)
(30.1964 -3.68291 5.7185e-18)
(29.4263 -3.83621 1.17368e-18)
(28.7889 -3.92835 0)
(28.2602 -4.00257 -3.47574e-18)
(27.8007 -4.10673 -3.1089e-18)
(27.3202 -4.25594 -2.73985e-18)
(26.7951 -4.33775 0)
(26.2831 -4.33347 1.99004e-18)
(25.8223 -4.29372 0)
(25.399 -4.24143 0)
(24.9931 -4.17457 0)
(24.5974 -4.09211 -6.04042e-19)
(24.2094 -3.99528 -6.25128e-19)
(23.8237 -3.8829 -9.4918e-21)
(23.4362 -3.75023 6.2228e-19)
(23.0382 -3.59301 0)
(22.6386 -3.39613 -8.52091e-19)
(22.2021 -3.16271 -2.50751e-18)
(21.8307 -2.823 -1.45799e-18)
(21.2983 -2.47696 -2.50589e-20)
(15.2449 0.819741 0)
(15.624 2.50754 1.2437e-18)
(16.2329 4.03226 -2.76419e-21)
(17.0236 5.41643 3.72523e-19)
(17.9921 6.64642 -3.04183e-18)
(19.1263 7.72959 -2.37466e-18)
(20.3884 8.6421 1.66934e-18)
(21.6905 9.38196 -1.01388e-18)
(23.1153 9.924 -5.89642e-20)
(24.6273 10.2195 6.87198e-19)
(26.124 10.2907 0)
(27.6754 10.135 -5.52749e-18)
(29.2686 9.70185 5.11399e-18)
(30.9193 8.91041 -6.63038e-18)
(32.575 7.63844 0)
(34.0504 5.89058 -2.44423e-18)
(35.0264 3.50976 7.2189e-18)
(35.049 0.919711 -4.91926e-18)
(34.0847 -1.09664 0)
(32.699 -2.28441 0)
(31.4368 -2.93274 0)
(30.4509 -3.32067 -5.65958e-18)
(29.6722 -3.55447 2.50248e-19)
(29.0215 -3.7015 -1.48332e-18)
(28.4737 -3.80917 2.88287e-18)
(27.9963 -3.92011 1.20331e-18)
(27.5245 -4.05404 -1.19872e-18)
(27.0316 -4.14459 1.97328e-18)
(26.5474 -4.16453 2.89922e-20)
(26.1033 -4.14226 0)
(25.6962 -4.10066 -2.36621e-19)
(25.3104 -4.04246 2.38976e-19)
(24.9382 -3.96685 5.79182e-19)
(24.5766 -3.87459 2.77818e-19)
(24.2216 -3.76501 0)
(23.87 -3.63413 -2.26693e-19)
(23.5163 -3.47792 0)
(23.1673 -3.28426 7.29861e-19)
(22.8048 -3.05421 9.7335e-19)
(22.4938 -2.74168 2.307e-18)
(22.1161 -2.411 0)
(16.8108 0.687241 9.75786e-19)
(17.1384 2.1258 -2.5917e-18)
(17.6423 3.40688 -2.97836e-18)
(18.2822 4.56925 5.70158e-18)
(19.0559 5.61359 0)
(19.9578 6.55305 -1.63182e-18)
(20.9654 7.3762 1.36654e-18)
(22.0222 8.08023 -1.22746e-18)
(23.2086 8.65219 -1.49403e-19)
(24.5271 9.01967 -7.13286e-19)
(25.8845 9.15655 8.35379e-19)
(27.2895 9.0431 2.86552e-18)
(28.6877 8.66953 -5.32201e-18)
(30.0916 8.01296 6.39455e-18)
(31.496 7.02316 -3.43899e-18)
(32.7987 5.68813 4.87363e-18)
(33.8214 3.88597 -3.70064e-18)
(34.2068 1.75999 8.0112e-18)
(33.7494 -0.167574 0)
(32.736 -1.52232 0)
(31.6339 -2.35454 -3.20665e-18)
(30.6961 -2.87025 4.56042e-19)
(29.9322 -3.19596 3.08968e-18)
(29.2824 -3.40961 2.62404e-18)
(28.7238 -3.56032 -3.48614e-18)
(28.2324 -3.68936 -9.76912e-19)
(27.763 -3.81955 -8.57935e-19)
(27.2919 -3.91657 -1.48915e-18)
(26.8292 -3.9573 7.77481e-19)
(26.3968 -3.95405 0)
(25.9974 -3.92509 2.01964e-19)
(25.6215 -3.87639 -3.53205e-19)
(25.2618 -3.80834 -3.23273e-19)
(24.9152 -3.72141 0)
(24.579 -3.61531 0)
(24.2511 -3.48726 0)
(23.9285 -3.33391 0)
(23.6164 -3.14684 4.37007e-19)
(23.3075 -2.92543 0)
(23.0421 -2.64435 -8.60466e-19)
(22.7596 -2.33895 -2.68102e-20)
(18.2384 0.568965 0)
(18.5195 1.78574 0)
(18.9349 2.85237 -2.1486e-18)
(19.4514 3.81807 0)
(20.0676 4.69255 0)
(20.7816 5.49089 0)
(21.5806 6.20914 0)
(22.4285 6.84415 0)
(23.3942 7.39246 0)
(24.5008 7.78345 -8.89127e-19)
(25.6777 7.96833 7.04253e-19)
(26.9068 7.91276 -6.30798e-19)
(28.113 7.62173 2.0151e-18)
(29.3005 7.10377 2.81585e-18)
(30.4843 6.35151 -3.92107e-18)
(31.6115 5.35342 2.88621e-18)
(32.5946 4.03135 -7.75867e-21)
(33.1943 2.38303 -5.51957e-18)
(33.1548 0.685801 2.96596e-18)
(32.5443 -0.708249 -3.16652e-18)
(31.6863 -1.68267 0)
(30.8587 -2.32593 -2.53091e-18)
(30.144 -2.7496 -4.58957e-18)
(29.518 -3.03826 4.30968e-18)
(28.9662 -3.24144 -2.07009e-18)
(28.4735 -3.40004 1.62988e-18)
(28.011 -3.53945 -1.6138e-18)
(27.5602 -3.64572 -6.14794e-19)
(27.1205 -3.70534 -1.03463e-18)
(26.7038 -3.72231 -4.35862e-19)
(26.3147 -3.70888 0)
(25.9488 -3.672 0)
(25.6006 -3.61361 -4.57378e-19)
(25.2672 -3.53444 -2.49582e-19)
(24.9468 -3.43463 9.70735e-20)
(24.6384 -3.31261 4.55156e-22)
(24.3407 -3.16609 0)
(24.0579 -2.99005 -3.07755e-19)
(23.7881 -2.78356 -4.726e-20)
(23.5575 -2.53523 0)
(23.3296 -2.26449 5.83419e-19)
(19.5165 0.465248 0)
(19.7563 1.4869 -1.8688e-18)
(20.0981 2.3671 3.62502e-18)
(20.5146 3.16093 0)
(21.0049 3.88323 0)
(21.5689 4.5486 2.05218e-18)
(22.1991 5.15717 3.08546e-18)
(22.873 5.70616 -1.86403e-18)
(23.6449 6.19772 0)
(24.5447 6.57341 4.88832e-21)
(25.5248 6.78134 -9.94147e-19)
(26.5614 6.78075 -7.16782e-19)
(27.5782 6.57751 1.89855e-18)
(28.5708 6.19208 5.96976e-19)
(29.5587 5.63849 -2.64061e-18)
(30.516 4.91082 1.02455e-18)
(31.4052 3.96665 -3.45672e-18)
(32.0874 2.75149 3.94601e-18)
(32.337 1.36815 1.05406e-18)
(32.0944 0.0691832 2.17141e-18)
(31.5286 -0.962812 0)
(30.8726 -1.70369 2.09829e-18)
(30.2497 -2.21785 -1.72444e-18)
(29.6769 -2.58235 3.6852e-18)
(29.1548 -2.84376 0)
(28.6783 -3.04135 2.7899e-18)
(28.2324 -3.20178 0)
(27.805 -3.32314 1.00875e-18)
(27.3914 -3.40172 -1.02209e-18)
(26.9964 -3.43956 7.87949e-19)
(26.6241 -3.44429 -2.92728e-19)
(26.273 -3.42229 2.94731e-19)
(25.94 -3.37658 2.09094e-19)
(25.623 -3.30852 4.07492e-19)
(25.3208 -3.21879 -7.66279e-20)
(25.033 -3.10698 -9.7735e-20)
(24.7597 -2.97212 0)
(24.504 -2.81198 1.5012e-19)
(24.2662 -2.6265 4.01969e-20)
(24.0639 -2.41156 -4.00916e-20)
(23.8711 -2.18058 -4.74319e-19)
(20.6412 0.375807 0)
(20.8448 1.22729 -3.37082e-18)
(21.1255 1.94715 6.08841e-18)
(21.4612 2.5928 -2.29749e-18)
(21.8513 3.18156 1.80012e-18)
(22.2961 3.72618 -6.79773e-18)
(22.7914 4.22877 0)
(23.3228 4.68731 -1.12922e-18)
(23.9309 5.10652 0)
(24.6444 5.44214 0)
(25.4332 5.64953 -1.06775e-18)
(26.2776 5.68964 1.46369e-18)
(27.1117 5.56466 0)
(27.9267 5.29574 -1.27349e-18)
(28.7387 4.90426 0)
(29.5355 4.38946 -4.29215e-18)
(30.3037 3.73216 4.87161e-18)
(30.9722 2.87275 6.6667e-19)
(31.377 1.81911 -9.13589e-19)
(31.4141 0.714794 -1.85201e-18)
(31.1343 -0.272315 -1.57286e-18)
(30.6884 -1.04985 0)
(30.1987 -1.62561 -2.97098e-18)
(29.7122 -2.05332 1.33408e-18)
(29.2465 -2.37026 1.22399e-18)
(28.8077 -2.6107 -1.23679e-19)
(28.3926 -2.80017 -3.09191e-18)
(27.9957 -2.94288 0)
(27.6128 -3.04226 7.63876e-19)
(27.2457 -3.10166 -6.00898e-19)
(26.897 -3.12656 6.05071e-19)
(26.5669 -3.12233 -8.44767e-19)
(26.2543 -3.09253 3.94629e-19)
(25.9579 -3.03926 1.61579e-19)
(25.6772 -2.96383 4.47182e-20)
(25.4126 -2.8669 1.00258e-19)
(25.1644 -2.74876 0)
(24.9352 -2.60918 -1.80662e-19)
(24.7255 -2.44924 0)
(24.5469 -2.26815 0)
(24.3807 -2.07739 0)
(21.6148 0.299962 0)
(21.7865 1.00402 1.02677e-18)
(22.0165 1.58738 -4.41386e-18)
(22.2868 2.10697 3.29582e-18)
(22.597 2.58079 1.53611e-18)
(22.9474 3.01928 -8.64486e-19)
(23.3354 3.42526 5.33283e-18)
(23.7516 3.79755 -6.30943e-18)
(24.2253 4.14155 4.33323e-18)
(24.7802 4.42556 -2.47601e-18)
(25.3979 4.61542 6.06357e-19)
(26.065 4.67862 -1.88785e-18)
(26.7306 4.61409 1.88555e-18)
(27.3849 4.43893 2.43351e-18)
(28.0394 4.17426 -2.21038e-18)
(28.6877 3.822 -2.36802e-19)
(29.327 3.37644 0)
(29.9247 2.78856 -5.89916e-19)
(30.3756 2.02919 4.68774e-18)
(30.5825 1.16246 -4.77844e-18)
(30.532 0.305024 1.33841e-18)
(30.2948 -0.434862 0)
(29.9618 -1.02365 1.73782e-18)
(29.589 -1.48544 -1.61479e-18)
(29.2057 -1.84241 8.49448e-19)
(28.8275 -2.11993 -9.62002e-19)
(28.4605 -2.33924 8.05469e-19)
(28.1052 -2.50629 6.90376e-19)
(27.7605 -2.62805 -6.26019e-19)
(27.4279 -2.70958 -9.88768e-19)
(27.1097 -2.75588 9.9377e-19)
(26.807 -2.77167 -1.10197e-20)
(26.5201 -2.76069 3.07009e-19)
(26.2487 -2.72563 -2.13194e-19)
(25.993 -2.66849 0)
(25.7535 -2.59077 3.25238e-20)
(25.5309 -2.49375 -8.36723e-20)
(25.327 -2.37853 4.1135e-20)
(25.1422 -2.24702 4.46022e-20)
(24.9839 -2.09978 -2.26319e-20)
(24.839 -1.94714 -1.16915e-19)
(22.4442 0.23685 -1.58038e-18)
(22.5879 0.814008 -1.04158e-18)
(22.7756 1.2823 -2.22852e-18)
(22.9927 1.69603 2.61009e-18)
(23.2391 2.07271 3.66027e-18)
(23.5147 2.42048 -1.69901e-18)
(23.8176 2.74219 -2.86299e-18)
(24.1418 3.03741 0)
(24.5076 3.31126 -2.06622e-18)
(24.9328 3.54182 9.70843e-19)
(25.4066 3.70495 5.52014e-19)
(25.9204 3.776 1.06178e-18)
(26.4381 3.75238 -2.91344e-18)
(26.9512 3.64641 2.55437e-18)
(27.4671 3.4757 0)
(27.982 3.24296 -6.17522e-19)
(28.4966 2.94911 5.23277e-18)
(28.9981 2.55782 -5.07881e-18)
(29.4241 2.03323 -1.73618e-19)
(29.7024 1.39574 6.84398e-18)
(29.7992 0.711424 -7.31669e-18)
(29.7308 0.0704717 0)
(29.5488 -0.477517 -8.45777e-19)
(29.3001 -0.932971 4.24367e-19)
(29.016 -1.30237 0)
(28.7166 -1.59998 0)
(28.4139 -1.84033 -2.32738e-18)
(28.1131 -2.02807 1.77533e-18)
(27.8158 -2.1704 -9.21273e-19)
(27.5255 -2.27282 9.25061e-19)
(27.245 -2.34013 3.66248e-19)
(26.9763 -2.37669 8.79405e-19)
(26.7206 -2.38624 -1.28197e-18)
(26.4785 -2.37179 3.56259e-19)
(26.2507 -2.33583 -4.93067e-20)
(26.038 -2.28044 1.30666e-19)
(25.8412 -2.20757 1.28276e-19)
(25.6615 -2.11903 -3.84424e-20)
(25.4992 -2.01711 -3.04703e-20)
(25.3585 -1.90293 1.31357e-20)
(25.2311 -1.78543 4.8754e-20)
(23.1388 0.185371 0)
(23.2578 0.654159 -5.62314e-19)
(23.4102 1.02652 -7.89599e-19)
(23.5842 1.35261 6.11027e-18)
(23.7796 1.64866 -4.07089e-18)
(23.9959 1.92075 -1.06144e-18)
(24.2318 2.17149 2.01106e-18)
(24.4832 2.40099 0)
(24.7638 2.61368 6.62384e-19)
(25.0864 2.79483 -6.22783e-19)
(25.4443 2.92827 7.4807e-19)
(25.8325 2.99658 -9.51251e-19)
(26.2266 2.99701 1.50198e-18)
(26.6202 2.93784 3.26947e-18)
(27.0179 2.83248 -2.9313e-18)
(27.4169 2.68338 -2.87055e-18)
(27.8188 2.49428 2.84423e-18)
(28.22 2.23963 -3.87435e-22)
(28.585 1.88858 -4.17503e-18)
(28.8665 1.44254 4.33216e-18)
(29.0325 0.933241 5.02534e-18)
(29.0737 0.422549 -4.8573e-18)
(29.0109 -0.0434879 3.3178e-19)
(28.8748 -0.453393 0)
(28.6903 -0.802662 0)
(28.4768 -1.09565 0)
(28.2481 -1.33974 0)
(28.0113 -1.5369 0)
(27.7703 -1.69237 0)
(27.5299 -1.81057 0)
(27.294 -1.89559 -3.00799e-19)
(27.0654 -1.95119 9.40287e-19)
(26.8461 -1.9808 -5.46363e-19)
(26.6374 -1.98742 -3.06407e-19)
(26.4405 -1.97367 -6.65278e-20)
(26.2563 -1.9419 0)
(26.0858 -1.89433 1.14309e-20)
(25.9298 -1.83304 7.00252e-21)
(25.7885 -1.76034 -4.02482e-20)
(25.6641 -1.67746 1.83615e-21)
(25.5519 -1.59194 3.64964e-20)
(23.7099 0.144011 -7.00062e-19)
(23.8071 0.521096 -2.60155e-18)
(23.9302 0.814236 -3.49882e-19)
(24.0691 1.06897 3.17603e-18)
(24.2236 1.29944 4.53098e-18)
(24.393 1.50996 4.7988e-19)
(24.5762 1.70282 -3.69014e-18)
(24.7704 1.87851 1.97391e-18)
(24.9849 2.04059 -2.31608e-18)
(25.228 2.17939 4.63487e-19)
(25.4957 2.2845 -7.5103e-19)
(25.7852 2.34424 -5.61346e-20)
(26.0804 2.35634 7.72544e-19)
(26.3768 2.32628 -1.62015e-18)
(26.6773 2.26364 2.3541e-18)
(26.9799 2.17033 -2.43661e-18)
(27.2856 2.0504 4.56348e-18)
(27.595 1.88674 -9.20111e-18)
(27.8881 1.65631 4.93577e-18)
(28.1362 1.35449 -6.125e-18)
(28.3156 0.994552 6.22139e-18)
(28.4101 0.614194 0)
(28.4233 0.247756 0)
(28.3715 -0.091157 0)
(28.271 -0.39352 8.81149e-20)
(28.1365 -0.657426 -2.81385e-18)
(27.9803 -0.884742 2.63805e-18)
(27.8094 -1.075 1.45481e-19)
(27.6283 -1.23093 0)
(27.4421 -1.35512 -9.71324e-19)
(27.2553 -1.45034 9.69467e-19)
(27.0713 -1.51942 9.66963e-20)
(26.8923 -1.56512 -8.46282e-20)
(26.7204 -1.59001 -5.44315e-19)
(26.557 -1.59649 6.03823e-19)
(26.4032 -1.58679 0)
(26.2599 -1.56304 -3.53404e-20)
(26.1278 -1.52722 6.25479e-21)
(26.0073 -1.48141 7.55932e-20)
(25.8995 -1.42679 -9.81011e-21)
(25.8018 -1.3694 8.74986e-21)
(24.154 0.112876 6.15393e-19)
(24.2333 0.4161 0)
(24.3328 0.646945 -1.96793e-19)
(24.4442 0.846749 1.36852e-18)
(24.5671 1.0269 1.29687e-18)
(24.7007 1.1903 -2.45929e-18)
(24.844 1.33899 0)
(24.9953 1.47374 7.43751e-19)
(25.1605 1.59721 3.51426e-19)
(25.3453 1.70309 3.82295e-19)
(25.547 1.78469 9.7928e-20)
(25.7639 1.8343 6.24213e-19)
(25.9854 1.85037 -6.03016e-19)
(26.2086 1.83656 -1.19193e-18)
(26.4353 1.79971 -8.36904e-19)
(26.6639 1.74121 -8.32388e-19)
(26.8953 1.66458 -8.88806e-19)
(27.1304 1.55806 2.93773e-18)
(27.3583 1.40546 0)
(27.5615 1.20148 4.46141e-18)
(27.7244 0.95116 -4.25474e-18)
(27.8321 0.67664 -4.78258e-18)
(27.8814 0.40115 4.75479e-18)
(27.88 0.135975 0)
(27.8367 -0.10981 -8.09913e-20)
(27.7616 -0.331777 0)
(27.6638 -0.528751 1.43814e-19)
(27.5492 -0.698988 -2.02597e-18)
(27.4215 -0.843321 1.88608e-18)
(27.2854 -0.962733 1.58586e-18)
(27.1451 -1.05871 -1.5778e-18)
(27.004 -1.13306 -8.77731e-20)
(26.8645 -1.18773 4.1078e-20)
(26.7287 -1.22466 0)
(26.5981 -1.24579 -5.58251e-20)
(26.4739 -1.25296 0)
(26.3571 -1.24798 -1.441e-19)
(26.2485 -1.23253 -2.51175e-21)
(26.1482 -1.20835 9.33233e-20)
(26.0571 -1.17642 0)
(25.9739 -1.14139 0)
(24.4846 0.0901662 -1.48769e-18)
(24.5503 0.336605 1.4106e-18)
(24.6315 0.520785 4.23483e-19)
(24.722 0.679817 -1.24744e-18)
(24.8214 0.822659 2.16596e-19)
(24.9285 0.951288 0)
(25.0427 1.06752 -2.66685e-18)
(25.1626 1.17225 1.99866e-18)
(25.2924 1.26747 4.29737e-19)
(25.4357 1.34897 -6.53395e-19)
(25.5908 1.41239 2.99821e-19)
(25.7563 1.45256 -2.96109e-19)
(25.9254 1.46848 1.17309e-18)
(26.096 1.46267 -1.00431e-18)
(26.2692 1.44007 3.19425e-19)
(26.4438 1.40171 -3.21893e-19)
(26.6204 1.35055 4.50088e-18)
(26.8 1.27852 -1.56394e-18)
(26.9762 1.17431 -5.28801e-18)
(27.138 1.03349 2.70319e-18)
(27.2755 0.857761 -5.95328e-20)
(27.3769 0.660389 0)
(27.4375 0.456624 -3.57294e-18)
(27.4605 0.25464 3.54338e-18)
(27.4507 0.0618383 3.42147e-18)
(27.4139 -0.117106 -3.44594e-18)
(27.3568 -0.279862 1.58061e-18)
(27.2837 -0.424342 -1.58115e-18)
(27.1973 -0.550317 0)
(27.1015 -0.657772 -1.28781e-18)
(26.9997 -0.747264 1.28693e-18)
(26.895 -0.819778 1.06203e-18)
(26.7896 -0.87654 -1.50433e-18)
(26.6853 -0.918902 4.72172e-19)
(26.5838 -0.948263 5.93213e-21)
(26.486 -0.966035 3.19725e-19)
(26.3931 -0.973612 -4.58511e-19)
(26.3056 -0.972334 1.37495e-19)
(26.2239 -0.963549 4.90866e-20)
(26.1486 -0.948067 -2.85613e-20)
(26.0792 -0.929321 -2.46519e-20)
(24.7348 0.0731788 0)
(24.7898 0.275377 -4.54994e-19)
(24.8568 0.424132 -1.08462e-19)
(24.9313 0.552349 -1.69728e-18)
(25.0126 0.667063 8.15577e-19)
(25.0998 0.769643 2.36878e-18)
(25.1922 0.861709 -4.36604e-18)
(25.2888 0.944159 2.02439e-18)
(25.3924 1.01853 4.79019e-19)
(25.5056 1.08194 -1.68863e-18)
(25.627 1.13153 6.30458e-19)
(25.7557 1.16376 2.22422e-19)
(25.887 1.17803 -1.22786e-19)
(26.0193 1.17612 1.44462e-19)
(26.1534 1.16164 -1.76667e-18)
(26.2885 1.13537 2.33147e-18)
(26.4246 1.09968 2.75365e-18)
(26.5628 1.04898 -6.42436e-18)
(26.6991 0.975447 5.5354e-18)
(26.8266 0.875717 -2.01649e-18)
(26.9387 0.75023 -2.44884e-18)
(27.0267 0.607245 5.13803e-18)
(27.0861 0.45683 8.9058e-20)
(27.1185 0.304612 -2.53057e-18)
(27.1259 0.156107 4.6391e-20)
(27.112 0.015314 -7.28498e-20)
(27.0813 -0.11533 -2.46042e-20)
(27.0367 -0.233838 1.16703e-18)
(26.9802 -0.339536 -2.25518e-18)
(26.9146 -0.431938 1.08901e-18)
(26.8428 -0.511064 -8.32782e-21)
(26.767 -0.577346 -1.31728e-20)
(26.6893 -0.631483 6.884e-21)
(26.6111 -0.674333 -3.45938e-19)
(26.5339 -0.706853 3.4857e-19)
(26.4586 -0.730048 2.96097e-19)
(26.3861 -0.74494 -2.82368e-19)
(26.3171 -0.752529 0)
(26.252 -0.753826 0)
(26.1911 -0.749458 1.1025e-20)
(26.1344 -0.741874 4.40174e-21)
(24.9276 0.0601443 0)
(24.974 0.227344 2.16192e-18)
(25.0298 0.348765 2.53745e-18)
(25.0916 0.453274 -2.53654e-18)
(25.1589 0.546404 2.04616e-18)
(25.2306 0.62913 -2.04363e-18)
(25.3063 0.702882 -7.60368e-19)
(25.3851 0.768521 1.24757e-18)
(25.469 0.827239 -4.33935e-19)
(25.5597 0.877062 0)
(25.6562 0.916054 1.14342e-19)
(25.7578 0.941797 0)
(25.8612 0.95393 4.0138e-19)
(25.9652 0.953771 -4.9756e-19)
(26.0704 0.943972 0)
(26.176 0.925153 -2.14766e-19)
(26.282 0.899167 0)
(26.3893 0.862136 2.23788e-18)
(26.4952 0.808605 -2.52426e-18)
(26.5952 0.736174 0)
(26.6849 0.644855 0)
(26.7582 0.540035 -1.3125e-19)
(26.8113 0.428482 -1.82702e-18)
(26.845 0.314012 1.84451e-18)
(26.8601 0.200574 -1.94762e-18)
(26.8589 0.0913155 2.00133e-18)
(26.8444 -0.0116321 3.31738e-20)
(26.8186 -0.106637 0)
(26.7828 -0.192933 0)
(26.7389 -0.269878 -8.04332e-19)
(26.6893 -0.337236 7.5218e-19)
(26.6355 -0.39512 1.22689e-20)
(26.5793 -0.443883 0)
(26.5218 -0.484041 2.5669e-20)
(26.4641 -0.516211 0)
(26.4072 -0.541077 -8.36301e-21)
(26.3518 -0.559358 -2.19049e-19)
(26.2984 -0.571769 1.43889e-19)
(26.2473 -0.579045 7.48941e-20)
(26.199 -0.581657 -1.0217e-20)
(26.1537 -0.581278 -8.84372e-21)
(25.0787 0.0499454 -5.58932e-19)
(25.1179 0.189094 -3.03999e-19)
(25.1646 0.289088 -1.48219e-18)
(25.2164 0.37505 0)
(25.2726 0.451342 0)
(25.3321 0.518678 0)
(25.3947 0.578321 7.03304e-19)
(25.4597 0.631068 -2.39908e-18)
(25.5284 0.677859 1.10841e-18)
(25.602 0.717326 1.4556e-18)
(25.6796 0.748161 -4.63337e-19)
(25.7609 0.768688 7.49222e-20)
(25.8432 0.778717 -7.51781e-20)
(25.926 0.779237 6.2627e-19)
(26.0093 0.772231 -6.36457e-19)
(26.0927 0.758195 0)
(26.1761 0.738574 1.38688e-18)
(26.2601 0.71065 -1.4262e-18)
(26.3428 0.670615 -2.12342e-18)
(26.4213 0.616796 4.48819e-18)
(26.4926 0.549101 5.11679e-19)
(26.5523 0.47121 -3.94135e-18)
(26.5977 0.38779 -1.64734e-19)
(26.6288 0.30144 2.86039e-18)
(26.6464 0.214948 -1.43557e-18)
(26.6516 0.130684 0)
(26.6465 0.0503612 8.09507e-20)
(26.6325 -0.0247628 0)
(26.6105 -0.0939916 -7.63604e-20)
(26.5817 -0.156702 0)
(26.5479 -0.212574 4.16958e-20)
(26.5104 -0.261564 6.57324e-20)
(26.4703 -0.303822 5.1649e-19)
(26.4286 -0.339638 -5.45112e-19)
(26.3862 -0.369398 0)
(26.3438 -0.393551 0)
(26.302 -0.412587 -2.28011e-20)
(26.2612 -0.427006 6.1335e-20)
(26.2219 -0.437325 -1.39384e-19)
(26.1843 -0.443895 7.57813e-20)
(26.1486 -0.447805 2.38672e-20)
(25.1985 0.0418388 -3.73369e-19)
(25.2318 0.158273 8.56778e-19)
(25.2712 0.241261 -1.31825e-18)
(25.3148 0.31252 1.66991e-19)
(25.362 0.375505 0)
(25.4119 0.430756 1.04249e-18)
(25.4641 0.479385 -2.09388e-18)
(25.5181 0.522115 7.58978e-20)
(25.5748 0.559701 7.46252e-19)
(25.6351 0.591189 -1.36798e-18)
(25.6983 0.615697 0)
(25.764 0.632057 3.22232e-20)
(25.8303 0.640193 0)
(25.8967 0.640862 0)
(25.9634 0.635563 0)
(26.0299 0.624702 0)
(26.096 0.609407 1.2794e-18)
(26.1622 0.587763 -1.1363e-18)
(26.2273 0.557104 0)
(26.2891 0.516284 0)
(26.3457 0.465224 1.43567e-18)
(26.3938 0.406545 -1.88581e-18)
(26.4315 0.343544 1.98934e-18)
(26.4588 0.278015 -2.08468e-18)
(26.476 0.211925 0)
(26.484 0.147022 9.59438e-19)
(26.4841 0.0846315 -2.27974e-18)
(26.4773 0.0256831 1.05741e-18)
(26.4641 -0.0292513 1.30732e-20)
(26.4456 -0.0796391 0)
(26.4229 -0.125168 -5.37966e-20)
(26.397 -0.16573 -1.00831e-20)
(26.3687 -0.201369 0)
(26.3388 -0.232239 -4.56867e-20)
(26.3079 -0.258576 0)
(26.2767 -0.28067 0)
(26.2455 -0.298848 2.1231e-20)
(26.2149 -0.313453 -3.45696e-20)
(26.1849 -0.324845 6.50721e-20)
(26.156 -0.333279 -5.1402e-21)
(26.1283 -0.339432 -4.37933e-20)
(25.2946 0.0353102 0)
(25.323 0.133194 0)
(25.3564 0.202531 1.21352e-18)
(25.3933 0.261999 6.13707e-20)
(25.4332 0.314345 0)
(25.4752 0.359993 9.50312e-19)
(25.519 0.39992 6.7528e-19)
(25.5642 0.434776 -1.63708e-18)
(25.6115 0.465173 3.94563e-19)
(25.6613 0.49045 -6.99513e-19)
(25.7132 0.510015 -1.00846e-19)
(25.7667 0.523056 -3.0092e-20)
(25.8206 0.529569 0)
(25.8744 0.530146 -1.13626e-19)
(25.9282 0.525933 0)
(25.9816 0.517268 0)
(26.0345 0.505036 -1.00925e-18)
(26.0871 0.487882 8.40147e-19)
(26.1385 0.463935 0)
(26.1874 0.432425 0)
(26.2323 0.393313 -1.36417e-18)
(26.2709 0.348529 2.88999e-18)
(26.3018 0.300457 -2.93569e-18)
(26.325 0.250357 1.45753e-18)
(26.3406 0.199625 0)
(26.3494 0.149543 2.06235e-19)
(26.3521 0.101111 1.48592e-19)
(26.3496 0.0550039 0)
(26.3421 0.0116662 -7.13997e-19)
(26.3304 -0.0284767 8.46403e-19)
(26.3153 -0.0651561 1.32983e-19)
(26.2975 -0.0982523 -4.77726e-20)
(26.2776 -0.127759 -3.7834e-20)
(26.2563 -0.153754 4.2597e-20)
(26.234 -0.176379 0)
(26.2112 -0.195819 3.19803e-20)
(26.1882 -0.212292 0)
(26.1653 -0.226032 1.76838e-19)
(26.1427 -0.237285 -1.15403e-19)
(26.1207 -0.246241 -2.37511e-21)
(26.0995 -0.253291 -2.45746e-20)
(25.3725 0.0299938 4.89646e-19)
(25.3967 0.112617 2.2411e-19)
(25.4251 0.170893 -1.22208e-18)
(25.4565 0.22081 3.29429e-18)
(25.4904 0.264568 -1.58183e-18)
(25.526 0.30251 6.21847e-19)
(25.563 0.335493 6.41952e-19)
(25.6011 0.364096 5.45934e-19)
(25.6407 0.388824 4.33525e-19)
(25.6821 0.409223 3.00958e-19)
(25.725 0.424902 -2.02987e-19)
(25.769 0.435298 -2.70451e-20)
(25.8132 0.440455 -2.77101e-20)
(25.8571 0.440845 6.79158e-19)
(25.9008 0.437354 -4.97466e-19)
(25.9439 0.430264 9.88462e-19)
(25.9865 0.420276 -8.47105e-19)
(26.0286 0.406431 0)
(26.0695 0.387415 9.0426e-20)
(26.1084 0.362721 -9.54995e-19)
(26.1441 0.332348 9.75031e-19)
(26.175 0.297757 -8.68441e-19)
(26.2001 0.260707 2.13589e-18)
(26.2194 0.222095 -1.0686e-18)
(26.2331 0.182924 0)
(26.2416 0.144133 -8.56768e-20)
(26.2455 0.106469 -8.55485e-20)
(26.2453 0.0704172 0)
(26.2413 0.0363112 -5.85099e-19)
(26.2341 0.00447829 5.64607e-19)
(26.2241 -0.0248659 -7.72268e-20)
(26.212 -0.051613 0)
(26.1982 -0.0757375 3.52838e-20)
(26.1831 -0.0972766 -5.60971e-20)