/*--------------------------------*- C++ -*----------------------------------*\
  =========                 |
  \\      /  F ield         | OpenFOAM: The Open Source CFD Toolbox
   \\    /   O peration     | Website:  https://openfoam.org
    \\  /    A nd           | Version:  11
     \\/     M anipulation  |
\*---------------------------------------------------------------------------*/
FoamFile
{
    format      ascii;
    class       volScalarField;
    location    "200";
    object      nut;
}
// * * * * * * * * * * * * * * * * * * * * * * * * * * * * * * * * * * * * * //

dimensions      [0 2 -1 0 0 0 0];

internalField   nonuniform List<scalar> 
11040
(
0.00175711
0.00179774
0.0019391
0.0025154
0.00294848
0.00326276
0.00343834
0.00335173
0.00319601
0.00309606
0.0030738
0.00318467
0.00341004
0.00368139
0.00372389
0.00349328
0.00285161
0.00240677
0.00222915
0.00216468
0.00212913
0.00209093
0.00205795
0.00203651
0.00203139
0.00201651
0.00196957
0.00193211
0.00190303
0.00188205
0.00186266
0.0018429
0.00182296
0.00180228
0.00177965
0.00175397
0.00172296
0.00168656
0.00163221
0.00158658
0.00132525
0.00812258
0.00820758
0.00814169
0.0078972
0.00762594
0.0071939
0.00655587
0.00565943
0.00494114
0.00446225
0.00415842
0.00411655
0.00412849
0.00404711
0.00370922
0.00384603
0.00403339
0.00419579
0.00428449
0.00417425
0.00392889
0.00366758
0.00345788
0.00330428
0.00318877
0.00307891
0.00303262
0.00300858
0.00297092
0.00292686
0.00288828
0.00285912
0.00283811
0.00282339
0.00281411
0.00280967
0.00281098
0.00281618
0.00283136
0.00285571
0.00273065
0.0169311
0.0171038
0.0170839
0.0167061
0.0162245
0.0154561
0.0143316
0.0126896
0.0112426
0.0101793
0.00944499
0.00922752
0.009164
0.0089583
0.0081714
0.00707474
0.00578318
0.00561162
0.00579073
0.00602415
0.00617312
0.00619314
0.00613366
0.00604975
0.00596905
0.0058332
0.00563542
0.00553691
0.00547803
0.0054348
0.0053972
0.00536074
0.00532452
0.00528847
0.00525258
0.00521529
0.00517652
0.00512672
0.00507729
0.00500465
0.00461499
0.0273867
0.0276435
0.0276237
0.0271253
0.0264104
0.0252937
0.0236681
0.0213329
0.0191018
0.0174073
0.0162289
0.0157928
0.0156152
0.0152296
0.0140551
0.012315
0.00991382
0.008367
0.00754067
0.00753396
0.00767407
0.00775247
0.00780728
0.00784437
0.00786105
0.0078091
0.00768049
0.00760182
0.00755428
0.00752542
0.00750681
0.00749255
0.00747966
0.00746627
0.0074511
0.00743182
0.00740747
0.00736863
0.00731578
0.00726187
0.00677624
0.0389745
0.0393059
0.0392846
0.0387036
0.0378002
0.0364059
0.0343804
0.0314957
0.0285411
0.026212
0.0245723
0.023864
0.0235165
0.0229183
0.0213029
0.01894
0.0155588
0.01298
0.0113622
0.0103439
0.00970986
0.00939586
0.00943584
0.00951893
0.00956314
0.00954181
0.00946986
0.00944649
0.00944322
0.00944756
0.00945745
0.00947133
0.00948697
0.00950166
0.00951327
0.00951905
0.00951724
0.00949991
0.00945969
0.00943146
0.00897259
0.0511471
0.0515339
0.0515105
0.0508908
0.0498691
0.0483034
0.04603
0.0427506
0.0391561
0.0363159
0.0342948
0.0333079
0.0327532
0.0319206
0.0298958
0.0268984
0.0224059
0.0186649
0.016261
0.0147067
0.0136192
0.0128449
0.012312
0.0119359
0.0116609
0.0115002
0.0114323
0.0114285
0.0114229
0.0114219
0.0114367
0.0114643
0.0114965
0.0115276
0.0115555
0.0115782
0.0115932
0.0115933
0.0115666
0.0115554
0.0111506
0.063335
0.0637512
0.0637277
0.0631119
0.0620536
0.0604383
0.05808
0.0546521
0.0507813
0.0475227
0.0451616
0.0439187
0.0431364
0.04206
0.0396889
0.0359644
0.0305412
0.0257466
0.0224606
0.0202497
0.018718
0.0176325
0.0168311
0.0162143
0.015755
0.0152981
0.0147689
0.0143506
0.01403
0.0138864
0.013851
0.0138502
0.01385
0.0138502
0.0138571
0.0138675
0.0138743
0.0138677
0.0138332
0.0138166
0.0134291
0.074997
0.0754143
0.0753944
0.0748179
0.0737996
0.0722499
0.0699412
0.0666918
0.0629134
0.0595333
0.0569171
0.0553917
0.0543621
0.0530451
0.0503142
0.0461782
0.0401611
0.0345386
0.0304239
0.0275118
0.0254093
0.0238895
0.022768
0.0218952
0.021227
0.0205761
0.0198054
0.0191472
0.018595
0.0181306
0.0177406
0.0174071
0.0171269
0.0169588
0.0168856
0.0168402
0.0167915
0.0167289
0.01664
0.0165777
0.0161315
0.0856903
0.0860834
0.086068
0.0855564
0.0846367
0.0832417
0.0811505
0.0782786
0.0748625
0.0716447
0.0689941
0.0672366
0.065979
0.0644177
0.0615487
0.0573136
0.0511154
0.0449925
0.0401882
0.0365999
0.0338935
0.0318799
0.0303794
0.0292052
0.0282894
0.0274202
0.026433
0.0255688
0.0248291
0.0241828
0.0236078
0.0230869
0.0226058
0.0221584
0.0217425
0.0213513
0.0210016
0.0207292
0.020501
0.0203395
0.0197588
0.0951289
0.0954794
0.0954682
0.0950342
0.0942455
0.0930546
0.0912769
0.0888807
0.085985
0.0831385
0.0806605
0.0788408
0.0774026
0.0757256
0.0729233
0.0688767
0.0629294
0.0567232
0.0514385
0.047298
0.0440418
0.0415464
0.0396523
0.0381527
0.0369618
0.0358539
0.0346485
0.0335785
0.0326501
0.031832
0.0310975
0.030426
0.0298008
0.0292078
0.0286356
0.0280739
0.0275134
0.0269507
0.0263736
0.0258929
0.0250137
0.103203
0.103501
0.103493
0.103137
0.102487
0.101511
0.100069
0.0981564
0.0958247
0.0934484
0.0912845
0.0895628
0.0881101
0.0864525
0.0838795
0.0802473
0.0749232
0.0689907
0.0635845
0.059072
0.0554173
0.0525711
0.050351
0.0485544
0.0470961
0.0457558
0.04435
0.0430895
0.0419816
0.0409971
0.0401083
0.0392928
0.0385327
0.0378128
0.0371198
0.0364418
0.0357663
0.035083
0.0343642
0.033709
0.0325108
0.10995
0.110195
0.110189
0.109904
0.109383
0.108605
0.10747
0.105989
0.104179
0.102257
0.100471
0.0989613
0.097622
0.0961082
0.0938847
0.090817
0.0863077
0.0810976
0.0760522
0.0715524
0.0676998
0.0645623
0.0620655
0.0600239
0.0583478
0.0568248
0.0552798
0.0538784
0.0526268
0.0515018
0.0504789
0.0495368
0.048658
0.0478275
0.0470316
0.0462582
0.0454948
0.0447318
0.0439436
0.0432206
0.0419667
0.115506
0.115702
0.115697
0.115472
0.11506
0.11445
0.113573
0.112445
0.111066
0.109573
0.108129
0.106874
0.10572
0.104423
0.102597
0.100134
0.0965453
0.0923047
0.0879965
0.0838778
0.0801686
0.0770212
0.0744237
0.0722439
0.070414
0.0687521
0.0670936
0.0655813
0.0642204
0.0629933
0.0618757
0.0608464
0.0598864
0.058987
0.0581269
0.0572936
0.0564762
0.0556665
0.054845
0.0540873
0.052876
0.120043
0.120197
0.120193
0.120017
0.119693
0.119217
0.118545
0.117692
0.11664
0.115508
0.114389
0.113368
0.112416
0.111352
0.109909
0.107983
0.105267
0.102035
0.0985916
0.0951519
0.0918909
0.0890029
0.0865394
0.0844285
0.0826085
0.0809386
0.0792854
0.0777635
0.0763779
0.0751154
0.0739575
0.0728862
0.0718859
0.0709432
0.0700461
0.0691841
0.0683473
0.0675272
0.0667134
0.0659594
0.0648404
0.123735
0.123856
0.123852
0.123715
0.123461
0.12309
0.122575
0.121931
0.121143
0.120289
0.119431
0.118623
0.117855
0.117003
0.115888
0.11443
0.112436
0.110058
0.107478
0.104823
0.102183
0.0997649
0.0976279
0.0957304
0.0940565
0.0925096
0.0909892
0.0895781
0.0882773
0.0870786
0.0859758
0.084949
0.0839855
0.0830748
0.0822078
0.0813765
0.0805731
0.0797915
0.0790211
0.0783047
0.0773158
0.12674
0.126834
0.126832
0.126724
0.126524
0.126235
0.125841
0.125352
0.124766
0.124119
0.123459
0.122825
0.122215
0.121543
0.120694
0.119609
0.118173
0.116471
0.114616
0.112659
0.110664
0.108772
0.107057
0.105499
0.104102
0.102795
0.101508
0.100301
0.0991758
0.0981284
0.0971521
0.0962381
0.0953779
0.0945694
0.0938002
0.0930631
0.0923528
0.0916649
0.0909922
0.0903641
0.0895475
0.129194
0.129268
0.129266
0.129181
0.129023
0.128795
0.128497
0.12812
0.127672
0.127179
0.126673
0.12618
0.125701
0.125178
0.124535
0.123734
0.122707
0.121505
0.1202
0.118807
0.117371
0.115969
0.11467
0.113476
0.112381
0.111348
0.110333
0.10938
0.108486
0.107645
0.106856
0.106112
0.105408
0.104741
0.104106
0.103499
0.10292
0.102362
0.101821
0.101314
0.10069
0.131117
0.131176
0.131175
0.131107
0.13098
0.130797
0.13056
0.130265
0.129918
0.129536
0.129143
0.128761
0.128383
0.127971
0.127477
0.126875
0.126125
0.125261
0.12433
0.123337
0.1223
0.121281
0.120323
0.119427
0.118596
0.117808
0.117041
0.116314
0.115627
0.114979
0.114367
0.113788
0.113245
0.11273
0.112239
0.111771
0.111323
0.110892
0.11048
0.110094
0.109643
0.132573
0.132621
0.132621
0.132565
0.132461
0.132311
0.132119
0.131883
0.131606
0.131304
0.130991
0.130685
0.130383
0.130053
0.129664
0.129199
0.128634
0.127992
0.1273
0.126571
0.125809
0.125058
0.124341
0.123663
0.123036
0.12244
0.121859
0.121307
0.120788
0.120297
0.119833
0.119394
0.118979
0.118585
0.118214
0.117861
0.117524
0.117202
0.116893
0.116606
0.116283
0.133702
0.133743
0.133743
0.133696
0.133609
0.133484
0.133324
0.133133
0.132907
0.132663
0.13241
0.132161
0.13191
0.131638
0.131323
0.130956
0.130519
0.130029
0.129503
0.128953
0.12838
0.127815
0.127272
0.126757
0.126275
0.125816
0.125372
0.124952
0.124555
0.124179
0.123823
0.12349
0.123176
0.122878
0.122596
0.122328
0.122075
0.121835
0.121605
0.121393
0.121162
0.134602
0.134637
0.134637
0.134598
0.134524
0.134417
0.134282
0.134121
0.133933
0.133732
0.133522
0.133314
0.133103
0.132879
0.132621
0.132324
0.131977
0.131594
0.131187
0.130763
0.130323
0.129889
0.129472
0.129072
0.128695
0.12834
0.127996
0.12767
0.127362
0.127073
0.126801
0.126544
0.126304
0.126077
0.125861
0.125657
0.125464
0.125283
0.125114
0.124956
0.12479
0.135335
0.135365
0.135365
0.135332
0.135267
0.135176
0.13506
0.134923
0.134767
0.134599
0.134423
0.134245
0.134063
0.133872
0.133656
0.133415
0.133136
0.13283
0.132507
0.132174
0.13183
0.131488
0.131162
0.130849
0.130554
0.130274
0.130005
0.129752
0.129511
0.129284
0.129071
0.128872
0.128687
0.128513
0.128347
0.12819
0.128042
0.127904
0.127773
0.127655
0.127534
0.135942
0.135967
0.135968
0.135939
0.135883
0.135804
0.135704
0.135586
0.135451
0.135307
0.135156
0.135003
0.134847
0.134684
0.134502
0.134302
0.134073
0.133825
0.133567
0.133301
0.133027
0.132756
0.132497
0.132249
0.132015
0.131793
0.131579
0.131379
0.131191
0.131012
0.130844
0.130686
0.130539
0.130404
0.130275
0.130154
0.130039
0.129932
0.129832
0.12974
0.129649
0.136451
0.136474
0.136475
0.136449
0.1364
0.136331
0.136243
0.136141
0.136024
0.135899
0.135769
0.135636
0.135501
0.13536
0.135207
0.135038
0.134848
0.134644
0.134433
0.134217
0.133996
0.133779
0.133572
0.133372
0.133184
0.133006
0.132835
0.132676
0.132526
0.132384
0.13225
0.132124
0.132007
0.131898
0.131797
0.131702
0.131613
0.131529
0.131452
0.13138
0.131311
0.136884
0.136904
0.136905
0.136882
0.136839
0.136778
0.136702
0.136612
0.13651
0.136401
0.136287
0.136171
0.136053
0.135931
0.135799
0.135656
0.135496
0.135326
0.135152
0.134974
0.134793
0.134617
0.134448
0.134287
0.134134
0.13399
0.133852
0.133724
0.133602
0.133488
0.133381
0.13328
0.133187
0.133099
0.133019
0.132944
0.132874
0.132809
0.132748
0.132692
0.13264
0.137256
0.137273
0.137274
0.137254
0.137216
0.137162
0.137094
0.137015
0.136926
0.13683
0.13673
0.136628
0.136525
0.136418
0.136304
0.13618
0.136045
0.135903
0.135758
0.13561
0.135461
0.135316
0.135178
0.135045
0.134921
0.134803
0.13469
0.134586
0.134488
0.134396
0.134309
0.134228
0.134152
0.134082
0.134017
0.133957
0.133902
0.13385
0.133802
0.133759
0.133718
0.137577
0.137593
0.137594
0.137576
0.137542
0.137494
0.137434
0.137364
0.137285
0.1372
0.137112
0.137022
0.136931
0.136837
0.136737
0.136631
0.136516
0.136397
0.136274
0.13615
0.136027
0.135907
0.135792
0.135683
0.13558
0.135483
0.135392
0.135307
0.135227
0.135151
0.13508
0.135014
0.134953
0.134895
0.134843
0.134794
0.13475
0.134709
0.134671
0.134636
0.134604
0.137858
0.137872
0.137873
0.137857
0.137827
0.137784
0.13773
0.137668
0.137598
0.137523
0.137445
0.137365
0.137284
0.137201
0.137114
0.137022
0.136924
0.136821
0.136717
0.136612
0.136508
0.136408
0.136311
0.136221
0.136136
0.136056
0.135981
0.135911
0.135844
0.135782
0.135724
0.13567
0.135619
0.135573
0.135529
0.13549
0.135454
0.135421
0.13539
0.135362
0.135338
0.138104
0.138117
0.138118
0.138104
0.138076
0.138038
0.13799
0.137934
0.137872
0.137805
0.137736
0.137665
0.137593
0.137519
0.137442
0.137362
0.137277
0.137188
0.137099
0.137011
0.136924
0.136838
0.136758
0.136682
0.136612
0.136546
0.136483
0.136424
0.136369
0.136317
0.136269
0.136224
0.136182
0.136144
0.136109
0.136076
0.136047
0.13602
0.135995
0.135973
0.135954
0.138322
0.138333
0.138334
0.138321
0.138297
0.138262
0.138219
0.138169
0.138113
0.138054
0.137992
0.137929
0.137865
0.137799
0.137731
0.137661
0.137586
0.13751
0.137434
0.137359
0.137284
0.137212
0.137145
0.137081
0.137021
0.136966
0.136913
0.136863
0.136816
0.136773
0.136733
0.136696
0.136662
0.13663
0.136601
0.136575
0.136551
0.136529
0.136509
0.136491
0.136476
0.138514
0.138525
0.138526
0.138514
0.138492
0.138461
0.138422
0.138377
0.138327
0.138274
0.138219
0.138162
0.138105
0.138047
0.137986
0.137924
0.137859
0.137793
0.137728
0.137663
0.1376
0.137539
0.137481
0.137428
0.137378
0.137331
0.137286
0.137244
0.137205
0.137169
0.137135
0.137104
0.137076
0.13705
0.137026
0.137004
0.136984
0.136966
0.136949
0.136935
0.136923
0.138686
0.138696
0.138696
0.138686
0.138666
0.138638
0.138603
0.138563
0.138518
0.13847
0.138421
0.13837
0.138319
0.138267
0.138213
0.138158
0.138101
0.138044
0.137987
0.137931
0.137877
0.137825
0.137777
0.137732
0.13769
0.13765
0.137612
0.137576
0.137543
0.137512
0.137484
0.137458
0.137434
0.137412
0.137392
0.137374
0.137357
0.137342
0.137329
0.137317
0.137307
0.13884
0.138848
0.138849
0.13884
0.138822
0.138796
0.138765
0.138729
0.138689
0.138646
0.138601
0.138556
0.138509
0.138463
0.138415
0.138366
0.138316
0.138266
0.138217
0.138169
0.138123
0.13808
0.138039
0.138
0.137964
0.137929
0.137896
0.137866
0.137837
0.137811
0.137787
0.137765
0.137745
0.137726
0.137709
0.137694
0.13768
0.137667
0.137656
0.137646
0.137638
0.138978
0.138986
0.138986
0.138978
0.138961
0.138939
0.13891
0.138878
0.138841
0.138803
0.138763
0.138722
0.138681
0.138639
0.138596
0.138553
0.138509
0.138465
0.138422
0.138381
0.138342
0.138304
0.138268
0.138235
0.138203
0.138173
0.138145
0.138118
0.138094
0.138072
0.138052
0.138033
0.138015
0.138
0.137985
0.137972
0.137961
0.13795
0.137941
0.137932
0.137926
0.139102
0.139109
0.13911
0.139102
0.139087
0.139067
0.139041
0.139012
0.138979
0.138944
0.138908
0.138872
0.138834
0.138797
0.138759
0.13872
0.138681
0.138643
0.138605
0.138569
0.138535
0.138502
0.138471
0.138442
0.138414
0.138388
0.138364
0.138341
0.138321
0.138302
0.138284
0.138268
0.138253
0.13824
0.138228
0.138217
0.138207
0.138198
0.13819
0.138183
0.138178
0.139214
0.13922
0.139221
0.139214
0.139201
0.139182
0.139159
0.139133
0.139103
0.139072
0.13904
0.139007
0.138973
0.13894
0.138906
0.138871
0.138837
0.138803
0.13877
0.138738
0.138708
0.138679
0.138652
0.138627
0.138603
0.13858
0.138559
0.13854
0.138522
0.138506
0.13849
0.138477
0.138464
0.138453
0.138442
0.138433
0.138425
0.138417
0.138411
0.138405
0.1384
0.139315
0.139321
0.139322
0.139316
0.139304
0.139287
0.139266
0.139242
0.139216
0.139188
0.139159
0.139129
0.139099
0.139069
0.139038
0.139008
0.138977
0.138947
0.138918
0.13889
0.138864
0.138839
0.138815
0.138793
0.138772
0.138752
0.138734
0.138718
0.138702
0.138688
0.138675
0.138663
0.138652
0.138642
0.138634
0.138626
0.138618
0.138612
0.138607
0.138602
0.138598
0.139407
0.139413
0.139413
0.139408
0.139397
0.139382
0.139363
0.139341
0.139318
0.139293
0.139267
0.13924
0.139213
0.139186
0.139159
0.139132
0.139105
0.139078
0.139053
0.139028
0.139005
0.138983
0.138962
0.138942
0.138924
0.138907
0.138892
0.138877
0.138864
0.138851
0.13884
0.13883
0.13882
0.138812
0.138804
0.138797
0.138791
0.138786
0.138781
0.138777
0.138774
0.139491
0.139496
0.139496
0.139491
0.139482
0.139468
0.139451
0.139432
0.139411
0.139388
0.139365
0.139341
0.139317
0.139293
0.139269
0.139245
0.139221
0.139197
0.139174
0.139153
0.139132
0.139113
0.139095
0.139078
0.139062
0.139047
0.139034
0.139021
0.139009
0.138999
0.138989
0.13898
0.138972
0.138964
0.138958
0.138952
0.138946
0.138942
0.138938
0.138934
0.138932
0.139567
0.139572
0.139572
0.139568
0.139559
0.139547
0.139531
0.139514
0.139495
0.139475
0.139455
0.139433
0.139412
0.13939
0.139369
0.139347
0.139326
0.139306
0.139286
0.139267
0.139249
0.139232
0.139216
0.139201
0.139187
0.139174
0.139162
0.139151
0.139141
0.139131
0.139123
0.139115
0.139108
0.139102
0.139096
0.139091
0.139086
0.139082
0.139079
0.139075
0.139073
0.139636
0.13964
0.139641
0.139637
0.139629
0.139618
0.139605
0.13959
0.139573
0.139555
0.139537
0.139518
0.139499
0.13948
0.139461
0.139442
0.139423
0.139405
0.139387
0.139371
0.139355
0.13934
0.139326
0.139313
0.139301
0.139289
0.139279
0.139269
0.13926
0.139252
0.139245
0.139238
0.139232
0.139226
0.139221
0.139216
0.139212
0.139209
0.139206
0.139203
0.139201
0.1397
0.139703
0.139704
0.1397
0.139693
0.139684
0.139672
0.139659
0.139644
0.139628
0.139612
0.139596
0.139579
0.139562
0.139545
0.139528
0.139512
0.139496
0.139481
0.139466
0.139452
0.139439
0.139427
0.139415
0.139405
0.139395
0.139386
0.139377
0.139369
0.139362
0.139356
0.13935
0.139344
0.139339
0.139335
0.139331
0.139327
0.139324
0.139322
0.139319
0.139317
0.139758
0.139761
0.139761
0.139758
0.139752
0.139744
0.139734
0.139722
0.139709
0.139696
0.139682
0.139667
0.139653
0.139638
0.139623
0.139609
0.139594
0.13958
0.139567
0.139554
0.139542
0.139531
0.13952
0.13951
0.139501
0.139492
0.139484
0.139476
0.139469
0.139463
0.139457
0.139452
0.139447
0.139443
0.139439
0.139435
0.139432
0.13943
0.139427
0.139425
0.139423
0.139811
0.139814
0.139814
0.139811
0.139806
0.139799
0.13979
0.139781
0.13977
0.139758
0.139746
0.139734
0.139721
0.139708
0.139696
0.139683
0.139671
0.139659
0.139647
0.139636
0.139626
0.139616
0.139606
0.139598
0.139589
0.139582
0.139575
0.139568
0.139562
0.139557
0.139551
0.139547
0.139542
0.139539
0.139535
0.139532
0.139529
0.139527
0.139525
0.139523
0.139521
0.139859
0.139862
0.139862
0.13986
0.139855
0.13985
0.139843
0.139835
0.139826
0.139816
0.139806
0.139796
0.139786
0.139775
0.139764
0.139754
0.139743
0.139733
0.139723
0.139713
0.139704
0.139696
0.139688
0.13968
0.139673
0.139666
0.13966
0.139655
0.139649
0.139644
0.13964
0.139636
0.139632
0.139628
0.139625
0.139622
0.13962
0.139617
0.139615
0.139614
0.139612
0.139904
0.139906
0.139906
0.139904
0.139901
0.139897
0.139891
0.139885
0.139878
0.139871
0.139863
0.139855
0.139847
0.139838
0.13983
0.139821
0.139813
0.139804
0.139796
0.139788
0.139781
0.139773
0.139767
0.13976
0.139754
0.139748
0.139743
0.139738
0.139733
0.139729
0.139725
0.139721
0.139718
0.139715
0.139712
0.139709
0.139707
0.139705
0.139703
0.139701
0.1397
0.139945
0.139946
0.139946
0.139945
0.139943
0.13994
0.139937
0.139933
0.139928
0.139924
0.139918
0.139913
0.139907
0.139901
0.139895
0.139889
0.139883
0.139877
0.139871
0.139865
0.139859
0.139853
0.139848
0.139843
0.139838
0.139833
0.139829
0.139825
0.139821
0.139817
0.139814
0.13981
0.139807
0.139805
0.139802
0.1398
0.139797
0.139795
0.139794
0.139792
0.13979
0.139983
0.139983
0.139983
0.139983
0.139982
0.139981
0.13998
0.139978
0.139977
0.139975
0.139973
0.139971
0.139969
0.139967
0.139964
0.139962
0.139959
0.139956
0.139954
0.139951
0.139948
0.139945
0.139943
0.13994
0.139937
0.139934
0.139932
0.139929
0.139926
0.139924
0.139921
0.139919
0.139916
0.139914
0.139912
0.13991
0.139908
0.139906
0.139905
0.139903
0.139902
0.00257731
0.00396148
0.0052596
0.00642499
0.00748052
0.0084542
0.0093676
0.0102373
0.0110765
0.0118961
0.0127051
0.0135116
0.0143224
0.0151436
0.0159808
0.0168387
0.0177214
0.0186325
0.0195747
0.0205504
0.021561
0.0226076
0.0236906
0.0248099
0.0259649
0.0271547
0.028378
0.0296332
0.0309186
0.0322321
0.0335717
0.0349353
0.0363206
0.0377255
0.0391478
0.0405855
0.0420363
0.0434982
0.0449692
0.0464477
0.0479322
0.0494215
0.0509119
0.0523971
0.0538716
0.0553417
0.0568422
0.0584453
0.0602483
0.0623369
0.0647395
0.0674058
0.0702261
0.0730751
0.0758509
0.0784905
0.0809659
0.0832724
0.0854177
0.0874147
0.0892775
0.0910197
0.0926538
0.0941907
0.0956401
0.0970106
0.0983096
0.0995436
0.100718
0.10184
0.102905
0.10396
0.104814
0.106327
0.00397973
0.00516756
0.00625836
0.00725768
0.00818964
0.00907281
0.00991897
0.010738
0.0115388
0.0123292
0.0131164
0.0139065
0.0147055
0.0155185
0.0163502
0.0172049
0.0180861
0.0189968
0.0199397
0.0209165
0.0219287
0.022977
0.0240616
0.0251825
0.0263388
0.0275297
0.0287539
0.0300097
0.0312954
0.032609
0.0339486
0.035312
0.036697
0.0381016
0.0395235
0.0409607
0.0424112
0.0438729
0.0453438
0.0468222
0.0483068
0.0497961
0.0512872
0.052774
0.0542508
0.0557222
0.0572186
0.0588052
0.060574
0.0626097
0.0649468
0.0675458
0.070307
0.0731109
0.0758562
0.0784776
0.0809438
0.0832473
0.0853935
0.0873938
0.0892616
0.0910099
0.0926506
0.0941947
0.0956516
0.0970298
0.0983367
0.0995787
0.100761
0.101892
0.102964
0.104028
0.10489
0.106415
0.00566392
0.00672276
0.0077017
0.00858821
0.00941036
0.010196
0.0109604
0.0117129
0.0124608
0.0132103
0.0139664
0.014734
0.0155173
0.0163203
0.0171467
0.0179996
0.0188817
0.0197954
0.0207424
0.0217241
0.0227413
0.0237945
0.0248836
0.0260083
0.0271677
0.0283609
0.0295866
0.0308431
0.0321287
0.0334417
0.0347801
0.0361419
0.037525
0.0389274
0.040347
0.0417818
0.04323
0.0446894
0.0461582
0.0476347
0.0491175
0.0506054
0.0520957
0.0535832
0.0550625
0.0565354
0.0580248
0.0595849
0.0612963
0.0632404
0.0654599
0.0679329
0.0705783
0.0732887
0.0759666
0.0785438
0.080984
0.0832743
0.0854161
0.087418
0.0892913
0.0910477
0.0926985
0.0942539
0.095723
0.0971141
0.0984343
0.0996902
0.100887
0.102032
0.103119
0.104197
0.105073
0.10662
0.00759653
0.00848441
0.00933605
0.0101285
0.0108746
0.0115961
0.0123067
0.0130151
0.0137285
0.0144525
0.0151915
0.0159493
0.0167294
0.0175345
0.0183672
0.0192297
0.0201236
0.0210504
0.0220112
0.0230064
0.0240365
0.0251014
0.0262008
0.0273341
0.0285004
0.0296986
0.0309275
0.0321857
0.0334715
0.0347832
0.0361192
0.0374776
0.0388565
0.0402541
0.0416685
0.0430979
0.0445404
0.0459941
0.0474575
0.0489286
0.0504063
0.0518892
0.0533753
0.0548606
0.0563399
0.0578127
0.0592936
0.060823
0.0624664
0.0642971
0.0663642
0.0686653
0.0711441
0.0737121
0.07628
0.0787792
0.081168
0.0834271
0.0855522
0.0875475
0.0894214
0.0911834
0.0928433
0.0944103
0.095893
0.097299
0.0986352
0.0999078
0.101122
0.102284
0.10339
0.104487
0.10538
0.106955
0.00962054
0.0103729
0.0111144
0.0118235
0.0125069
0.0131826
0.0138618
0.014551
0.0152555
0.0159795
0.0167261
0.0174981
0.0182974
0.019126
0.019985
0.0208757
0.0217986
0.0227543
0.0237429
0.0247644
0.0258186
0.0269051
0.0280231
0.029172
0.0303509
0.0315586
0.0327941
0.0340561
0.0353432
0.0366539
0.0379869
0.0393406
0.0407133
0.0421035
0.0435096
0.0449299
0.0463628
0.0478068
0.0492602
0.0507215
0.0521893
0.0536625
0.0551395
0.0566174
0.0580919
0.0595607
0.0610315
0.0625306
0.0641067
0.0658205
0.0677219
0.0698256
0.072101
0.0744837
0.0768988
0.0792813
0.0815863
0.0837883
0.0858767
0.0878504
0.0897135
0.0914728
0.0931358
0.0947102
0.0962035
0.0976225
0.0989735
0.100262
0.101494
0.102674
0.103798
0.104915
0.105826
0.10743
0.0116915
0.0123628
0.0130433
0.0137102
0.0143648
0.0150219
0.015693
0.0163844
0.0171004
0.0178442
0.0186179
0.0194226
0.0202592
0.021128
0.0220291
0.0229624
0.0239275
0.0249239
0.0259511
0.0270084
0.028095
0.0292103
0.0303532
0.031523
0.0327186
0.0339393
0.0351838
0.0364512
0.0377403
0.0390501
0.0403793
0.0417267
0.043091
0.044471
0.0458654
0.0472727
0.0486918
0.0501212
0.0515595
0.0530055
0.0544579
0.0559156
0.0573774
0.0588412
0.0603039
0.0617626
0.0632199
0.0646907
0.0662071
0.0678145
0.0695577
0.0714615
0.0735178
0.0756873
0.0779141
0.0801426
0.0823283
0.084442
0.0864673
0.0883975
0.0902322
0.0919743
0.0936286
0.0952009
0.096697
0.0981226
0.099483
0.100784
0.102028
0.103224
0.104363
0.105496
0.106423
0.108053
0.0139251
0.0145765
0.0152562
0.015938
0.0166166
0.0173015
0.0180031
0.0187273
0.0194781
0.0202587
0.021071
0.021916
0.0227938
0.0237043
0.0246469
0.0256208
0.0266251
0.0276587
0.0287205
0.0298095
0.0309245
0.0320645
0.0332284
0.0344153
0.0356242
0.0368541
0.0381042
0.0393736
0.0406612
0.0419662
0.0432877
0.0446247
0.0459762
0.0473413
0.0487188
0.0501078
0.0515072
0.052916
0.0543329
0.0557569
0.057187
0.0586221
0.0600612
0.061503
0.0629452
0.0643854
0.0658232
0.0672655
0.0687306
0.0702489
0.0718555
0.0735774
0.0754215
0.0773705
0.079389
0.0814348
0.0834693
0.0854627
0.0873953
0.0892557
0.0910389
0.092744
0.0943728
0.0959283
0.0974144
0.0988355
0.100196
0.101499
0.102749
0.103952
0.105101
0.106244
0.107181
0.108827
0.0166301
0.0173235
0.0180641
0.0188177
0.0195724
0.0203313
0.0211021
0.0218897
0.0226974
0.0235283
0.0243845
0.0252674
0.026178
0.0271166
0.0280832
0.0290775
0.030099
0.0311467
0.0322199
0.0333177
0.0344388
0.0355824
0.0367475
0.0379329
0.0391377
0.0403611
0.041602
0.0428596
0.0441331
0.0454215
0.0467242
0.0480403
0.049369
0.0507093
0.0520606
0.053422
0.0547926
0.0561715
0.0575578
0.0589507
0.0603492
0.0617523
0.0631594
0.0645694
0.0659808
0.0673917
0.0688008
0.0702101
0.0716286
0.0730735
0.074569
0.0761383
0.0777948
0.0795364
0.0813457
0.0831957
0.0850572
0.086904
0.0887161
0.0904795
0.0921859
0.0938308
0.095413
0.096933
0.0983925
0.0997939
0.10114
0.102434
0.103678
0.104878
0.106026
0.10717
0.10811
0.10976
0.0202922
0.0210747
0.0219186
0.0227778
0.0236348
0.0244873
0.0253402
0.0261981
0.027064
0.0279411
0.028832
0.0297391
0.0306639
0.0316079
0.0325722
0.0335574
0.0345642
0.0355927
0.0366428
0.0377143
0.0388069
0.0399199
0.0410528
0.0422048
0.0433751
0.044563
0.0457675
0.0469879
0.0482233
0.0494729
0.0507359
0.0520115
0.0532989
0.0545973
0.055906
0.0572242
0.0585511
0.0598859
0.0612278
0.062576
0.0639297
0.0652882
0.0666506
0.0680161
0.0693838
0.0707522
0.07212
0.073487
0.0748564
0.0762366
0.0776416
0.0790878
0.0805886
0.0821495
0.0837659
0.0854239
0.0871051
0.0887898
0.0904606
0.0921039
0.0937095
0.095271
0.0967844
0.098248
0.0996614
0.101025
0.102341
0.10361
0.104835
0.106018
0.107153
0.108286
0.109219
0.110857
0.025519
0.0263585
0.0272812
0.0282199
0.0291514
0.0300692
0.0309757
0.0318748
0.0327699
0.0336646
0.034562
0.0354651
0.0363762
0.0372975
0.0382309
0.0391778
0.0401396
0.0411174
0.0421119
0.0431238
0.0441535
0.0452011
0.0462667
0.0473502
0.0484511
0.0495692
0.0507039
0.0518545
0.0530205
0.0542011
0.0553956
0.0566032
0.0578232
0.0590549
0.0602973
0.0615498
0.0628115
0.0640817
0.0653596
0.0666444
0.0679354
0.0692317
0.0705327
0.0718374
0.0731451
0.0744548
0.0757654
0.0770759
0.0783868
0.0797012
0.0810257
0.0823697
0.0837433
0.0851537
0.0866024
0.0880852
0.0895925
0.0911122
0.0926317
0.0941394
0.0956258
0.0970837
0.0985078
0.0998947
0.101242
0.10255
0.103818
0.105046
0.106234
0.107387
0.108496
0.109604
0.110519
0.112127
0.0328278
0.033556
0.0344249
0.0353402
0.0362616
0.0371724
0.0380695
0.0389544
0.0398297
0.0406981
0.0415626
0.0424261
0.0432911
0.04416
0.0450349
0.0459176
0.0468097
0.0477126
0.0486274
0.0495552
0.050497
0.0514535
0.0524253
0.0534127
0.0544159
0.0554352
0.0564703
0.0575212
0.0585875
0.059669
0.0607652
0.0618754
0.0629992
0.0641357
0.0652844
0.0664446
0.0676154
0.0687961
0.069986
0.0711843
0.0723902
0.0736029
0.0748215
0.0760454
0.0772737
0.0785055
0.0797399
0.0809759
0.082213
0.0834515
0.0846939
0.0859442
0.0872083
0.0884916
0.0897976
0.0911265
0.092475
0.0938372
0.0952053
0.0965713
0.0979276
0.0992677
0.100586
0.101879
0.103143
0.104377
0.105579
0.106749
0.107886
0.108993
0.11006
0.11113
0.112016
0.113575
0.0421411
0.0426674
0.043309
0.0440565
0.0448561
0.045671
0.0464871
0.0472988
0.0481037
0.0489015
0.0496941
0.0504837
0.0512724
0.0520622
0.0528546
0.0536512
0.0544534
0.0552628
0.0560805
0.0569079
0.0577459
0.0585954
0.0594572
0.0603318
0.0612198
0.0621217
0.0630379
0.0639687
0.0649141
0.0658742
0.0668489
0.067838
0.0688412
0.069858
0.0708881
0.071931
0.072986
0.0740527
0.0751303
0.0762181
0.0773153
0.0784213
0.0795353
0.0806563
0.0817838
0.0829167
0.0840544
0.0851958
0.0863402
0.087487
0.0886363
0.0897895
0.0909487
0.0921169
0.0932968
0.0944899
0.0956958
0.0969122
0.0981356
0.0993611
0.100584
0.101798
0.103001
0.104187
0.105353
0.106498
0.107619
0.108715
0.109786
0.110831
0.111843
0.11286
0.113706
0.115195
0.0529299
0.0533128
0.0537589
0.0542233
0.0547376
0.0553476
0.0560121
0.0566922
0.0573755
0.0580602
0.0587464
0.0594337
0.0601213
0.060809
0.0614977
0.0621891
0.0628845
0.0635855
0.0642931
0.0650082
0.0657316
0.0664638
0.0672057
0.067958
0.0687213
0.0694965
0.0702841
0.0710845
0.0718981
0.072725
0.0735654
0.0744194
0.0752871
0.0761683
0.0770631
0.0779712
0.0788923
0.0798261
0.080772
0.0817296
0.0826983
0.0836775
0.0846666
0.0856648
0.0866714
0.0876857
0.0887069
0.0897343
0.0907668
0.0918039
0.0928448
0.0938894
0.0949381
0.0959918
0.0970516
0.0981185
0.0991928
0.100274
0.101361
0.10245
0.10354
0.104627
0.105707
0.106778
0.107837
0.108881
0.109909
0.110918
0.111908
0.112878
0.113822
0.114773
0.115566
0.116965
0.0647764
0.0650061
0.0652898
0.0655857
0.0658926
0.0662168
0.0665625
0.0669511
0.0674221
0.0679489
0.0684984
0.0690525
0.0696068
0.0701639
0.0707265
0.0712958
0.0718716
0.0724536
0.0730413
0.0736345
0.0742339
0.0748406
0.0754555
0.0760797
0.0767139
0.0773586
0.0780142
0.0786809
0.0793589
0.0800486
0.0807503
0.0814643
0.082191
0.0829306
0.0836831
0.0844487
0.0852272
0.0860184
0.086822
0.0876379
0.0884657
0.089305
0.0901554
0.0910165
0.0918876
0.0927683
0.0936577
0.0945552
0.09546
0.0963716
0.0972891
0.0982119
0.0991396
0.100072
0.101009
0.101951
0.102898
0.10385
0.104805
0.105763
0.106723
0.107682
0.108638
0.10959
0.110534
0.111469
0.112394
0.113306
0.114204
0.115088
0.11595
0.116822
0.117553
0.118844
0.0771439
0.0772244
0.0773495
0.0774835
0.0776248
0.0777777
0.0779465
0.0781345
0.0783447
0.0785787
0.0788368
0.0791204
0.0794567
0.0798489
0.0802737
0.0807134
0.081159
0.0816067
0.0820574
0.0825144
0.0829804
0.0834565
0.0839429
0.0844392
0.084945
0.0854598
0.0859836
0.0865164
0.0870591
0.0876122
0.0881765
0.0887524
0.0893402
0.08994
0.0905518
0.0911756
0.0918113
0.092459
0.0931186
0.0937902
0.0944737
0.095169
0.0958759
0.096594
0.097323
0.0980624
0.0988116
0.0995703
0.100338
0.101114
0.101898
0.102688
0.103486
0.104289
0.105098
0.105912
0.10673
0.107553
0.108379
0.109209
0.11004
0.110872
0.111704
0.112534
0.113361
0.114182
0.114997
0.115804
0.116602
0.117391
0.118162
0.118946
0.119604
0.120771
0.0893065
0.0892633
0.0892527
0.089248
0.0892476
0.089255
0.0892742
0.0893085
0.0893604
0.0894314
0.0895224
0.0896337
0.0897659
0.0899195
0.0900945
0.0902904
0.0905064
0.0907427
0.0910154
0.0913282
0.0916681
0.0920235
0.0923879
0.0927585
0.0931344
0.0935161
0.0939061
0.0943065