/*--------------------------------*- C++ -*----------------------------------*\
  =========                 |
  \\      /  F ield         | OpenFOAM: The Open Source CFD Toolbox
   \\    /   O peration     | Website:  https://openfoam.org
    \\  /    A nd           | Version:  11
     \\/     M anipulation  |
\*---------------------------------------------------------------------------*/
FoamFile
{
    format      ascii;
    class       volScalarField;
    location    "200";
    object      p;
}
// * * * * * * * * * * * * * * * * * * * * * * * * * * * * * * * * * * * * * //

dimensions      [0 2 -2 0 0 0 0];

internalField   nonuniform List<scalar> 
11040
(
376.413
356.371
308.998
237.101
153.074
46.1999
-61.2472
-135.971
-127.918
-118.59
-147.11
-204.94
-338.851
-506.996
-652.78
-665.337
-592.314
-386.181
-254.361
-206.509
-180.535
-156.133
-135.77
-120.403
-109.217
-102.801
-90.4092
-67.7886
-53.6677
-43.3036
-33.0566
-22.9271
-13.2647
-3.92947
5.33949
14.7301
24.3512
34.5892
45.2651
58.3836
69.2291
369.245
349.792
307.413
244.865
169.669
77.3052
-16.9801
-86.1491
-103.724
-109.252
-141.385
-199.508
-317.466
-463.124
-590.229
-613.379
-566.716
-395.014
-265.005
-211.544
-183.07
-158.025
-137.233
-121.468
-109.822
-102.685
-90.4998
-68.8876
-54.5513
-43.9775
-33.6725
-23.5066
-13.8044
-4.43841
4.84709
14.2441
23.8582
34.082
44.6721
57.8215
68.0793
357.123
339.045
301.26
245.888
177.534
95.3593
9.521
-59.6908
-94.0924
-109.037
-139.813
-194.781
-296.805
-423.989
-539.707
-574.086
-542.815
-401.602
-273.363
-214.091
-184.196
-159.197
-138.184
-122.083
-110.004
-102.158
-90.3874
-69.919
-55.1707
-44.3676
-34.0636
-23.8931
-14.167
-4.78606
4.50011
13.8891
23.4807
33.6664
44.1463
57.1902
66.8129
341.398
324.642
291.094
242.746
182.25
110.419
34.0585
-31.84
-76.1656
-100.395
-132.622
-185.874
-274.664
-384.426
-488.279
-532.13
-516.695
-403.15
-281.408
-217.465
-185.718
-160.615
-139.323
-122.818
-110.265
-101.61
-90.1525
-70.9543
-55.9254
-44.8915
-34.5893
-24.416
-14.6646
-5.27018
4.0105
13.3799
22.9305
33.0436
43.3708
56.1363
65.1216
322.366
306.897
277.485
235.926
183.509
121.581
54.7407
-5.99799
-55.807
-89.3765
-124.275
-175.298
-251.705
-344.463
-434.92
-483.439
-483.511
-399.476
-289.574
-222.091
-187.602
-162.189
-140.652
-123.675
-110.58
-101.016
-89.7481
-71.9951
-56.8935
-45.5734
-35.2439
-25.0804
-15.3125
-5.91243
3.34782
12.6728
22.1472
32.1266
42.2262
54.4864
62.8046
300.388
286.214
260.759
225.528
181.004
128.458
70.9366
16.3479
-34.674
-75.0711
-112.757
-161.394
-226.979
-304.433
-381.768
-432.025
-445.188
-389.939
-296.018
-227.189
-189.612
-163.75
-142.092
-124.636
-110.957
-100.457
-89.2282
-72.9666
-58.0275
-46.4069
-36.0279
-25.8988
-16.1342
-6.74294
2.47477
11.7207
21.0714
30.8384
40.62
52.1378
59.8501
276.045
263.163
241.388
211.895
174.737
130.85
82.1949
34.3156
-14.4215
-58.2222
-98.1611
-144.527
-200.923
-265.135
-330.208
-379.487
-402.366
-372.913
-298.575
-232.077
-191.786
-165.229
-143.541
-125.657
-111.378
-99.9943
-88.6678
-73.7877
-59.2662
-47.4131
-36.9659
-26.8932
-17.1638
-7.80685
1.33695
10.4575
19.6225
29.0818
38.4429
49.0073
56.2016
250.039
238.423
219.984
195.569
165.018
128.906
88.4557
47.4297
3.32319
-40.3809
-81.1009
-125.057
-173.767
-226.942
-281.116
-327.1
-355.8
-347.614
-295.061
-235.434
-193.837
-166.458
-144.818
-126.651
-111.816
-99.6559
-88.134
-74.4043
-60.5123
-48.5702
-38.0572
-28.0622
-18.4141
-9.13275
-0.105627
8.83151
17.736
26.784
35.6208
45.0919
51.8067
223.135
212.74
197.251
177.228
152.404
123.076
89.9805
55.5915
17.3527
-23.3584
-62.817
-103.86
-146.136
-190.343
-235.261
-276.542
-307.437
-314.781
-283.681
-235.244
-194.957
-167.11
-145.636
-127.432
-112.188
-99.4105
-87.6624
-74.81
-61.6693
-49.8309
-39.2959
-29.3992
-19.8826
-10.732
-1.8768
6.80983
15.3731
23.9152
32.1386
40.4846
46.6798
196.112
186.872
173.944
157.64
137.643
114.075
87.3764
59.1296
27.102
-8.73481
-44.9495
-82.2728
-118.96
-155.925
-193.196
-229.218
-259.498
-276.351
-263.72
-229.333
-193.778
-166.612
-145.591
-127.68
-112.301
-99.1355
-87.2181
-75.0146
-62.6542
-51.1214
-40.6655
-30.9053
-21.5764
-12.625
-4.00755
4.36031
12.5077
20.4737
28.0226
35.3152
40.9174
169.709
161.549
150.809
137.6
121.586
102.801
81.5128
58.7188
32.6253
2.48916
-29.0773
-61.8498
-93.3924
-124.368
-155.324
-186.099
-213.942
-235.081
-236.083
-216.172
-188.525
-163.978
-144.085
-126.925
-111.83
-98.6057
-86.678
-74.9937
-63.3824
-52.3279
-42.1054
-32.562
-23.4937
-14.8241
-6.52245
1.4562
9.12116
16.4683
23.3171
29.6853
34.6716
144.581
137.426
128.537
117.871
105.094
90.2106
73.3928
55.2664
34.4684
10.0258
-16.2748
-43.9642
-70.5675
-96.3744
-121.999
-147.827
-172.287
-193.944
-203.238
-195.711
-177.666
-157.893
-140.268
-124.523
-110.271
-97.4454
-85.7896
-74.6381
-63.754
-53.3099
-43.4987
-34.2969
-25.5857
-17.2953
-9.40192
-1.88929
5.23492
11.9449
18.1061
23.6901
28.1171
121.267
115.044
107.714
99.1245
88.9551
77.213
64.0203
49.7709
33.4724
14.1923
-6.92183
-29.4635
-51.3239
-72.5097
-93.5035
-114.795
-135.532
-155.458
-168.464
-169.664
-160.81
-147.245
-133.171
-119.688
-106.961
-95.1098
-84.1391
-73.6972
-63.5993
-53.8868
-44.6677
-35.9676
-27.7391
-19.939
-12.5535
-5.58306
0.954016
7.02586
12.5375
17.4616
21.4257
100.147
94.7906
88.7738
81.8767
73.8016
64.5712
54.28
43.1783
30.5681
15.6751
-0.788272
-18.5511
-36.0113
-53.0365
-69.9412
-87.1433
-104.185
-121.311
-134.857
-140.94
-139.175
-131.866
-122.168
-111.734
-101.216
-90.9594
-81.1756
-71.7601
-62.6239
-53.799
-45.3579
-37.3407
-29.7454
-22.5602
-15.785
-9.43016
-3.5177
1.92357
6.8316
11.1922
14.7761
81.4402
76.8882
71.9805
66.463
60.0698
52.8396
44.8506
36.263
26.6
15.2721
2.71546
-10.9127
-24.4864
-37.8418
-51.1617
-64.75
-78.3458
-92.3529
-104.645
-112.571
-115.164
-112.888
-107.502
-100.475
-92.6367
-84.4812
-76.36
-68.3436
-60.4324
-52.703
-45.2392
-38.0953
-31.2972
-24.8596
-18.7975
-13.1286
-7.87478
-3.05912
1.28071
5.14106
8.38898
65.2918
61.4799
57.5031
53.1028
48.0533
42.4056
36.2251
29.6147
22.2576
13.731
4.3036
-5.94051
-16.2497
-26.4817
-36.7376
-47.2179
-57.7635
-68.7719
-79.0327
-86.8729
-91.421
-92.3657
-90.4061
-86.5128
-81.3984
-75.5603
-69.3946
-63.0683
-56.6376
-50.2223
-43.9343
-37.847
-32.007
-26.4487
-21.2005
-16.2867
-11.7295
-7.54759
-3.76365
-0.376788
2.53965
51.7779
48.6365
45.4412
41.9431
37.9645
33.5643
28.795
23.7225
18.1406
11.7611
4.75145
-2.84464
-10.5407
-18.2307
-25.9685
-33.878
-41.8617
-50.2411
-58.3378
-65.139
-70.0304
-72.5265
-72.7556
-71.2325
-68.4308
-64.7408
-60.5171
-55.9506
-51.1138
-46.1416
-41.1614
-36.2608
-31.4993
-26.9238
-22.5719
-18.4732
-14.6511
-11.1225
-7.90311
-4.99227
-2.42974
41.1866
38.586
36.0234
33.2238
30.0592
26.5955
22.8732
18.9357
14.6476
9.81618
4.55017
-1.12768
-6.90117
-12.6957
-18.5385
-24.5012
-30.5148
-36.8148
-43.0202
-48.5201
-52.9182
-55.79
-57.0504
-56.9363
-55.7146
-53.6434
-50.994
-47.9346
-44.5276
-40.895
-37.1588
-33.4069
-29.7023
-26.0954
-22.627
-19.3293
-16.2264
-13.3356
-10.6702
-8.2327
-6.04579
33.1357
30.9618
28.8827
26.608
24.0494
21.2751
18.3161
15.202
11.8421
8.10619
4.06876
-0.25683
-4.65909
-9.08552
-13.5498
-18.0933
-22.6678
-27.4363
-32.1747
-36.5061
-40.1796
-42.873
-44.4538
-45.0229
-44.7181
-43.695
-42.1442
-40.1971
-37.8981
-35.3451
-32.641
-29.8636
-27.0709
-24.3104
-21.6215
-19.0352
-16.5751
-14.2583
-12.0975
-10.0976
-8.2741
26.962
25.1351
23.4298
21.5585
19.4623
17.2075
14.8178
12.3142
9.63471
6.69071
3.5354
0.177859
-3.2364
-6.66983
-10.1287
-13.6363
-17.1571
-20.8036
-24.4384
-27.8208
-30.7901
-33.1127
-34.6669
-35.4937
-35.6615
-35.2604
-34.4191
-33.2341
-31.7329
-29.9884
-28.0817
-26.0762
-24.0208
-21.9564
-19.9175
-17.9319
-16.021
-14.201
-12.4837
-10.8757
-9.38848
22.1508
20.6096
19.1979
17.6427
15.9069
14.0524
12.0978
10.0581
7.89097
5.53537
3.03069
0.384015
-2.30199
-4.99989
-7.71189
-10.4508
-13.1899
-16.0065
-18.8124
-21.4501
-23.8148
-25.7388
-27.1256
-27.9914
-28.3703
-28.314
-27.9084
-27.2216
-26.2695
-25.1045
-23.7875
-22.3675
-20.8832
-19.3678
-17.8498
-16.3525
-14.8944
-13.4897
-12.1492
-10.8799
-9.69086
18.3519
17.048
15.8705
14.5676
13.1179
11.578
9.96266
8.28306
6.51007
4.60152
2.58733
0.473586
-1.66575
-3.81019
-5.95973
-8.121
-10.2733
-12.4698
-14.652
-16.7137
-18.5855
-20.1471
-21.3264
-22.1304
-22.5765
-22.695
-22.5433
-22.1695
-21.5823
-20.8186
-19.9228
-18.9316
-17.8747
-16.7776
-15.6631
-14.5499
-13.4531
-12.3848
-11.3541
-10.368
-9.43367
15.3184
14.2126
13.2239
12.1249
10.9055
9.61663
8.27005
6.87455
5.4101
3.84757
2.21018
0.503397
-1.2185
-2.93991
-4.65967
-6.38071
-8.08689
-9.81491
-11.5245
-13.1427
-14.6225
-15.8773
-16.8548
-17.5591
-17.9993
-18.1944
-18.1833
-17.9999
-17.6491
-17.1567
-16.5547
-15.8702
-15.1251
-14.339
-13.5291
-12.7102
-11.8944
-11.0912
-10.3085
-9.55217
-8.82842
12.8724
11.9327
11.0979
10.1656
9.1337
8.04753
6.9168
5.74858
4.52925
3.23874
1.89542
0.50428
-0.894226
-2.28802
-3.67536
-5.05706
-6.4204
-7.79074
-9.13965
-10.4161
-11.5877
-12.5917
-13.3909
-13.9884
-14.3898
-14.6074
-14.6684
-14.597
-14.3961
-14.0837
-13.683
-13.2137
-12.692
-12.1324
-11.548
-10.9501
-10.348
-9.7493
-9.16028
-8.58587
-8.0314
10.8836
10.0836
9.37517
8.58035
7.70249
6.78174
5.82626
4.84194
3.81969
2.74584
1.63511
0.492097
-0.652666
-1.78969
-2.917
-4.03422
-5.13131
-6.2258
-7.29722
-8.30928
-9.23958
-10.0421
-10.6909
-11.1887
-11.5395
-11.752
-11.8454
-11.8373
-11.7297
-11.5353
-11.271
-10.9511
-10.5874
-10.1909
-9.7711
-9.33666
-8.89466
-8.45107
-8.01076
-7.57769
-7.15651
9.25465
8.57253
7.96857
7.28798
6.53766
5.75305
4.94118
4.1071
3.24495
2.34558
1.42092
0.475199
-0.468271
-1.40196
-2.32386
-3.233
-4.12141
-5.00125
-5.85752
-6.66418
-7.40551
-8.04767
-8.57262
-8.98321
-9.28256
-9.47697
-9.58051
-9.60627
-9.55555
-9.43776
-9.26511
-9.04805
-8.79536
-8.515
-8.21424
-7.89946
-7.57607
-7.24861
-6.92091
-6.59601
-6.27797
7.91173
7.32935
6.81234
6.22724
5.58322
4.91148
4.2182
3.50784
2.77687
2.01932
1.24497
0.457688
-0.324568
-1.09576
-1.85398
-2.59797
-3.32145
-4.03284
-4.72106
-5.36724
-5.96031
-6.47526
-6.89971
-7.23652
-7.48829
-7.65991
-7.76183
-7.80389
-7.78719
-7.71866
-7.6073
-7.46082
-7.28568
-7.08782
-6.87265
-6.64493
-6.40875
-6.16759
-5.92438
-5.68146
-5.44232
6.79833
6.30054
5.85624
5.3514
4.79646
4.21886
3.62417
3.01641
2.3937
1.75235
1.10044
0.441479
-0.21058
-0.850869
-1.47764
-2.08958
-2.68173
-3.25995
-3.81598
-4.3361
-4.81249
-5.2266
-5.57008
-5.84569
-6.05571
-6.20402
-6.29857
-6.34681
-6.34978
-6.31267
-6.24216
-6.14399
-6.02298
-5.88354
-5.72973
-5.56513
-5.39281
-5.21541
-5.03522
-4.85394
-4.67465
5.87056
5.44467
5.06147
4.62437
4.14442
3.64577
3.13349
2.61132
2.07852
1.53302
0.981565
0.427306
-0.118843
-0.652938
-1.17343
-1.67906
-2.16593
-2.63814
-3.08953
-3.51008
-3.8943
-4.22839
-4.50684
-4.73226
-4.90665
-5.03321
-5.11802
-5.16683
-5.18062
-5.16333
-5.11998
-5.05488
-4.97165
-4.8736
-4.76379
-4.6449
-4.51927
-4.38889
-4.25553
-4.12046
-3.98631
5.09406
4.72938
4.3977
4.018
3.60145
3.16928
2.72624
2.2758
1.81807
1.35212
0.883592
0.415314
-0.0441311
-0.491547
-0.925582
-1.34511
-1.74708
-2.1344
-2.50246
-2.84397
-3.15509
-3.42555
-3.65183
-3.83634
-3.98086
-4.08805
-4.16262
-4.20906
-4.22827
-4.2233
-4.19795
-4.1555
-4.09868
-4.02999
-3.95176
-3.866
-3.7745
-3.67877
-3.58018
-3.47964
-3.37945
4.44161
4.12914
3.84108
3.51015
3.14737
2.77141
2.38676
1.99671
1.60196
1.20234
0.802638
0.405362
0.0172905
-0.358987
-0.722319
-1.07174
-1.40489
-1.72385
-2.0252
-2.30364
-2.55655
-2.77628
-2.96069
-3.11197
-3.23171
-3.32211
-3.3869
-3.42957
-3.45098
-3.45351
-3.44006
-3.41312
-3.3748
-3.327
-3.27148
-3.20979
-3.14327
-3.0731
-3.00033
-2.92561
-2.85092
3.89155
3.62366
3.37263
3.08326
2.76619
2.4379
2.10268
1.76365
1.42191
1.07787
0.735551
0.397193
0.0681604
-0.249455
-0.554696
-0.846767
-1.12386
-1.38751
-1.63519
-1.86309
-2.06946
-2.24862
-2.39938
-2.52372
-2.62302
-2.69914
-2.75502
-2.79345
-2.81519
-2.82211
-2.81646
-2.80016
-2.77483
-2.74193
-2.70279
-2.65862
-2.61045
-2.55916
-2.50559
-2.45019
-2.39466
3.42647
3.1967
2.97716
2.72327
2.44516
2.1574
1.86412
1.56832
1.27138
0.974052
0.679778
0.390516
0.110526
-0.158514
-0.415827
-0.660787
-0.892039
-1.11073
-1.31506
-1.50229
-1.6713
-1.81792
-1.9416
-2.04408
-2.12658
-2.19068
-2.23871
-2.27289
-2.29391
-2.30326
-2.30269
-2.29368
-2.27748
-2.25522
-2.22795
-2.19658
-2.1619
-2.1246
-2.08532
-2.0444
-2.00328
3.03231
2.83515
2.64245
2.41888
2.17402
1.92078
1.66318
1.40411
1.14511
0.887173
0.63325
0.385047
0.145942
-0.0827292
-0.300359
-0.506478
-0.7001
-0.882126
-1.05128
-1.20565
-1.3446
-1.46503
-1.56686
-1.6516
-1.72033
-1.77438
-1.81561
-1.8458
-1.86558
-1.87612
-1.87879
-1.87475
-1.86499
-1.85037
-1.83171
-1.80971
-1.785
-1.75808
-1.72949
-1.69944
-1.66918
2.69766
2.52839
2.3586
2.16096
1.9445
1.72069
1.49348
1.26565
1.03885
0.814224
0.594286
0.380524
0.175608
-0.0194125
-0.204083
-0.378082
-0.540718
-0.692731
-0.833257
-0.961006
-1.07566
-1.17497
-1.25913
-1.32946
-1.3869
-1.43257
-1.46799
-1.49456
-1.51285
-1.5238
-1.5285
-1.52784
-1.5226
-1.51346
-1.50106
-1.48594
-1.46859
-1.4494
-1.4288
-1.40692
-1.38484
2.41319
2.26779
2.11754
1.94205
1.74984
1.55114
1.34983
1.14861
0.949181
0.752763
0.561512
0.376709
0.200455
0.0335565
-0.123671
-0.271036
-0.40809
-0.535468
-0.652627
-0.75873
-0.8537
-0.935926
-1.00577
-1.06438
-1.11257
-1.15129
-1.18177
-1.20514
-1.2219
-1.23281
-1.23872
-1.24034
-1.23829
-1.2331
-1.22526
-1.21521
-1.20332
-1.18991
-1.17531
-1.1596
-1.14371
2.17128
2.04626
1.91268
1.7561
1.58455
1.40725
1.22799
1.04943
0.873283
0.700785
0.533789
0.373381
0.221204
0.0778539
-0.0564741
-0.18171
-0.297595
-0.404706
-0.502739
-0.591204
-0.670185
-0.738554
-0.796766
-0.845824
-0.886426
-0.919376
-0.94567
-0.966232
-0.981488
-0.992062
-0.998621
-1.00174
-1.00189
-0.99951
-0.994979
-0.988639
-0.980786
-0.971668
-0.961547
-0.950474
-0.939238
1.96565
1.85802
1.73862
1.59812
1.44415
1.28503
1.12452
0.965221
0.808853
0.656635
0.510156
0.370324
0.238402
0.114803
-0.000387313
-0.107203
-0.205543
-0.295946
-0.378296
-0.452355
-0.518325
-0.575434
-0.624191
-0.66546
-0.699843
-0.728022
-0.750809
-0.768956
-0.78283
-0.792942
-0.79982
-0.803921
-0.805626
-0.805275
-0.803173
-0.799588
-0.794755
-0.788869
-0.78214
-0.774592
-0.766909
1.79114
1.69824
1.59084
1.46395
1.32486
1.18115
1.03654
0.893599
0.754006
0.618958
0.489818
0.367333
0.252453
0.145433
0.0462562
-0.0452064
-0.128982
-0.205587
-0.275049
-0.337314
-0.392662
-0.440589
-0.481619
-0.516496
-0.545738
-0.569926
-0.589723
-0.605745
-0.61831
-0.627835
-0.634742
-0.639398
-0.642106
-0.643141
-0.64274
-0.641121
-0.638467
-0.634933
-0.630691
-0.625744
-0.620686
1.64352
1.56302
1.46564
1.35009
1.22345
1.0927
0.96154
0.832455
0.707093
0.586589
0.472099
0.36423
0.263675
0.170558
0.0847737
0.00611093
-0.065565
-0.130763
-0.189624
-0.242229
-0.288911
-0.329366
-0.364115
-0.393793
-0.418849
-0.439775
-0.457116
-0.471375
-0.482827
-0.491812
-0.498671
-0.503697
-0.507134
-0.509202
-0.51009
-0.509972
-0.508993
-0.507277
-0.504964
-0.502043
-0.499032
1.51936
1.44924
1.36019
1.25396
1.13751
1.01742
0.897389
0.779897
0.666529
0.558329
0.456248
0.360731
0.272249
0.190804
0.116221
0.0482216
-0.0134042
-0.0691638
-0.119275
-0.163922
-0.203463
-0.237749
-0.267279
-0.292599
-0.314099
-0.332198
-0.347346
-0.359961
-0.370278
-0.378581
-0.385144
-0.390207
-0.393966
-0.396599
-0.398258
-0.399083
-0.39919
-0.398678
-0.397661
-0.396123
-0.39451
1.41575
1.35428
1.27218
1.17365
1.06554
0.954068
0.843024
0.734913
0.63133
0.533272
0.44152
0.356366
0.278053
0.206452
0.141289
0.0822194
0.0289543
-0.0190015
-0.0619363
-0.10009
-0.133853
-0.163175
-0.188538
-0.210401
-0.229109
-0.245011
-0.258486
-0.269868
-0.279369
-0.287213
-0.293629
-0.298804
-0.302905
-0.306069
-0.308425
-0.310081
-0.311135
-0.311662
-0.311761
-0.311405
-0.310987
1.33024
1.27552
1.19879
1.10637
1.00513
0.900915
0.797418
0.697097
0.601509
0.511636
0.428173
0.351352
0.281284
0.217747
0.160381
0.108764
0.0625192
0.0211321
-0.0157435
-0.0483972
-0.0772233
-0.102252
-0.123939
-0.142675
-0.158764
-0.172508
-0.184229
-0.194205
-0.202622
-0.209669
-0.215535
-0.220374
-0.224323
-0.227494
-0.229996
-0.231911
-0.233326
-0.234297
-0.234908
-0.235133
-0.235296
1.26105
1.21075
1.13688
1.04799
0.951386
0.852791
0.755791
0.662565
0.574408
0.492057
0.415989
0.346321
0.283074
0.226017
0.174806
0.129026
0.0882774
0.0520494
0.0199427
-0.00839064
-0.0333699
-0.0551086
-0.0740381
-0.0904983
-0.10476
-0.117081
-0.127728
-0.136927
-0.144837
-0.15161
-0.1574
-0.16233
-0.166513
-0.170038
-0.172993
-0.175447
-0.177469
-0.179105
-0.180427
-0.181409
-0.182321
1.20716
1.16
1.08737
0.999367
0.90405
0.807626
0.713972
0.625403
0.543062
0.467405
0.398516
0.33615
0.279987
0.22958
0.184466
0.144198
0.108388
0.0766047
0.0485079
0.0237965
0.00211042
-0.0166909
-0.0329952
-0.0471019
-0.0592617
-0.0697181
-0.0787125
-0.0864528
-0.0930899
-0.0987653
-0.103615
-0.107747
-0.111259
-0.114229
-0.11673
-0.118822
-0.120559
-0.121982
-0.123145
-0.12404
-0.124843
1.16774
1.12525
1.05662
0.971514
0.877767
0.781737
0.687964
0.599314
0.517483
0.443251
0.376844
0.318004
0.266248
0.22091
0.181251
0.146547
0.116141
0.0894105
0.065857
0.0450857
0.0267163
0.0105687
-0.00368571
-0.0162671
-0.0273605
-0.0371323
-0.0457514
-0.0533571
-0.0600594
-0.0659581
-0.0711533
-0.0757259
-0.0797516
-0.0832932
-0.0864096
-0.089151
-0.091563
-0.0936833
-0.0955528
-0.0971787
-0.0986694
1.1417
1.10298
1.03936
0.960386
0.873034
0.782785
0.693532
0.607937
0.527662
0.453705
0.386548
0.326286
0.27278
0.225689
0.184575
0.148924
0.11822
0.0919042
0.0694659
0.0504064
0.0342494
0.0206266
0.00912434
-0.000573511
-0.00874275
-0.0156307
-0.0214574
-0.0263971
-0.0305912
-0.0341496
-0.0371801
-0.0397542
-0.0419474
-0.0438036
-0.0453791
-0.0467005
-0.0478106
-0.0487262
-0.0494783
-0.0500877
-0.0505368
1.12799
1.07931
1.00205
0.912536
0.820612
0.731905
0.649216
0.573632
0.505319
0.443969
0.389077
0.34004
0.296258
0.257156
0.222211
0.190955
0.162976
0.137923
0.115501
0.0954695
0.077594
0.0616751
0.047462
0.0348058
0.0235612
0.0135932
0.00475798
-0.00305985
-0.00997508
-0.0160819
-0.021479
-0.0262433
-0.0304541
-0.0341722
-0.0374605
-0.0403666
-0.0429387
-0.0452174
-0.0472264
-0.0490426
-0.0505001
103.109
71.1266
53.4907
50.2615
45.865
40.1246
35.4413
31.7274
28.4415
25.4822
22.8657
20.5526
18.4907
16.6458
14.9929
13.5101
12.1776
10.9787
9.89895
8.9258
8.04813
7.25624
6.54143
5.89603
5.31318
4.78677
4.31123
3.88176
3.49377
3.1434
2.8269
2.54122
2.28314
2.05031
1.83999
1.65032
1.47912
1.32467
1.1853
1.05946
0.94613
0.843747
0.751132
0.667943
0.592039
0.524
0.46144
0.404433
0.353007
0.30603
0.264391
0.226864
0.195767
0.169038
0.146945
0.130739
0.115541
0.106202
0.0975082
0.0918598
0.0864891
0.0824014
0.0784691
0.0745717
0.0703764
0.0661569
0.0605681
0.0554438
0.047686
0.0414388
0.0255277
0.0284266
-0.0401054
0.0816056
100.042
71.1527
53.6181
50.1683
45.8185
40.1009
35.4179
31.7093
28.4286
25.4721
22.8576
20.546
18.4855
16.6415
14.9894
13.5072
12.1753
10.9768
9.89736
8.92449
8.04705
7.25536
6.5407
5.89544
5.31269
4.78637
4.31091
3.88151
3.49357
3.14323
2.82678
2.54112
2.28308
2.05025
1.83996
1.6503
1.47911
1.32467
1.1853
1.05947
0.94614
0.843758
0.751158
0.667947
0.592067
0.524008
0.461463
0.404505
0.35308
0.306152
0.264507
0.227
0.195873
0.169125
0.147032
0.130704
0.115571
0.106161
0.0974732
0.0917977
0.0864286
0.0823333
0.0784001
0.0744998
0.0703089
0.066081
0.060519
0.0553767
0.0476332
0.0413778
0.0255069
0.0283505
-0.0399176
0.0812595
95.6714
71.0837
53.6766
49.8987
45.6925
40.0429
35.3632
31.6665
28.3982
25.4487
22.8388
20.5311
18.4736
16.6319
14.9816
13.5009
12.1701
10.9726
9.89393
8.92169
8.04477
7.2535
6.53919
5.89422
5.31171
4.78558
4.31028
3.88101
3.49318
3.14293
2.82655
2.54095
2.28296
2.05017
1.83991
1.65027
1.4791
1.32467
1.18531
1.05951
0.946171
0.843796
0.751206
0.667974
0.592116
0.524035
0.461524
0.404638
0.353249
0.306397
0.264793
0.227319
0.196145
0.169363
0.147222
0.13075
0.115656
0.106129
0.0974305
0.0917018
0.0863244
0.082207
0.0782661
0.0743606
0.0701698
0.0659356
0.0603984
0.0552354
0.0475161
0.0412511
0.0254472
0.0281884
-0.0395292
0.0805089
90.2744
70.4261
53.6109
49.441
45.439
39.9223
35.2591
31.5843
28.3404
25.4052
22.8045
20.5042
18.4525
16.6152
14.9683
13.4902
12.1615
10.9656
9.88836
8.91721
8.04118
7.25062
6.53689
5.89239
5.31026
4.78445
4.30941
3.88033
3.49267
3.14256
2.82629
2.54077
2.28285
2.05011
1.8399
1.65029
1.47915
1.32474
1.18539
1.0596
0.946258
0.843892
0.751307
0.668053
0.59221
0.524105
0.461637
0.404827
0.353503
0.306755
0.265233
0.227813
0.196597
0.169772
0.147553
0.130915
0.115826
0.106139
0.09741
0.0915959
0.0861962
0.0820384
0.0780808
0.0741624
0.0699661
0.0657244
0.0602105
0.0550262
0.0473367
0.0410593
0.0253523
0.0279413
-0.0389062
0.0793106
83.9779
68.9037
53.3567
48.7569
44.9794
39.6919
35.0769
31.4383
28.2364
25.3282
22.7446
20.4577
18.4164
16.5869
14.946
13.4726
12.1476
10.9546
9.87959
8.91026
8.03568
7.24628
6.53349
5.88973
5.3082
4.78286
4.30821
3.87944
3.49203
3.1421
2.826
2.54059
2.28278
2.0501
1.83995
1.65039
1.47927
1.32488
1.18555
1.05978
0.946432
0.844071
0.751492
0.668209
0.592383
0.524243
0.46182
0.40509
0.353843
0.307219
0.2658
0.228464
0.197209
0.170344
0.148027
0.131192
0.116087
0.1062
0.0974159
0.0914861
0.0860464
0.0818293
0.0778422
0.0739031
0.0696967
0.0654423
0.0599535
0.0547445
0.0470919
0.0407998
0.0252232
0.0276069
-0.0380172
0.0776191
76.9698
66.3285
52.7391
47.7883
44.2265
39.2846
34.7764
31.1942
28.0574
25.1956
22.6418
20.3778
18.3545
16.5386
14.908
13.4427
12.124
10.936
9.86495
8.89871
8.02659
7.23914
6.5279
5.88538
5.30484
4.78028
4.30626
3.87798
3.49097
3.14136
2.8255
2.54028
2.28263
2.05006
1.84001
1.65051
1.47945
1.32509
1.18578
1.06004
0.946681
0.844328
0.751755
0.668443
0.592631
0.524452
0.462069
0.405404
0.354228
0.307729
0.266426
0.229196
0.197923
0.171035
0.148624
0.131583
0.116442
0.106325
0.097467
0.0913924
0.0858939
0.0815973
0.0775678
0.0735973
0.0693736
0.0651003
0.0596356
0.0544
0.0467891
0.0404783
0.025068
0.0271894
-0.0368205
0.0753854
69.4654
62.6047
51.5203
46.4691
43.1015
38.6145
34.3033
30.8103
27.7663
24.9776
22.4721
20.2443
18.2499
16.4564
14.843
13.3912
12.0832
10.9036
9.83916
8.87823
8.01034
7.22626
6.51773
5.87736
5.29855
4.77538
4.30246
3.87506
3.48876
3.13971
2.8243
2.53943
2.28207
2.04971
1.83984
1.65046
1.4795
1.32522
1.18597
1.06027
0.946931
0.844598
0.752046
0.668712
0.592928
0.524708
0.462368
0.40576
0.354643
0.308259
0.267063
0.229955
0.198669
0.171778
0.149282
0.132033
0.116856
0.10649
0.0975408
0.0913001
0.0857265
0.0813331
0.0772477
0.0732374
0.0689913
0.0646928
0.0592534
0.0539877
0.0464254
0.0400935
0.0248882
0.0266888
-0.035292
0.0725728
61.7411
57.8081
49.473
44.7067
41.5397
37.586
33.5872
30.2369
27.3194
24.6373
22.2057
20.0324
18.0816
16.3223
14.7356
13.3049
12.0138
10.8478
9.79427
8.84209
7.98127
7.20289
6.49896
5.86232
5.28652
4.76578
4.29484
3.86903
3.48402
3.136
2.82143
2.53722
2.2804
2.04847
1.83895
1.64984
1.4791
1.32498
1.18587
1.06028
0.947004
0.844732
0.752233
0.668906
0.593172
0.524933
0.462648
0.406096
0.355031
0.308747
0.267647
0.230664
0.199372
0.172501
0.149941
0.132503
0.11729
0.106673
0.0976268
0.0912066
0.0855458
0.0810419
0.0768911
0.0728322
0.068557
0.0642285
0.0588125
0.0535163
0.0460076
0.0396509
0.0246911
0.0261129
-0.0334088
0.0691603
54.0642
52.168
46.4521
42.38
39.4899
36.1094
32.5427
29.4135
26.6659
24.1307
21.8069
19.7129
17.8249
16.1156
14.5683
13.169
11.9032
10.7577
9.72072
8.78205
7.93226
7.1629
6.46634
5.83574
5.26489
4.7482
4.28058
3.85748
3.4747
3.12849
2.81541
2.53241
2.27658
2.04544
1.83659
1.648
1.47768
1.32391
1.18507
1.05972
0.94661
0.844478
0.752107
0.668841
0.593214
0.524995
0.462805
0.406336
0.355341
0.309161
0.268148
0.231292
0.199989
0.173145
0.150535
0.132917
0.117683
0.106818
0.0976746
0.0910702
0.0853159
0.080694
0.0764709
0.0723599
0.0680547
0.0636926
0.058303
0.0529754
0.0455286
0.0391468
0.0244763
0.0254617
-0.031177
0.065159
46.5774
45.9689
42.4483
39.3676
36.9015
34.1131
31.0769
28.267
25.7468
23.4056
21.2322
19.2503
17.4504
15.8117
14.3207
12.9664
11.737
10.6209
9.60812
8.68919
7.85562
7.09961
6.41408
5.7926
5.22929
4.71884
4.25639
3.83757
3.45833
3.11506
2.80441
2.5234
2.26924
2.03946
1.83174
1.64407
1.47452
1.32137
1.18305
1.05812
0.945343
0.843491
0.751363
0.668262
0.592823
0.524706
0.462672
0.406339
0.355454
0.309408
0.268496
0.231783
0.200475
0.173671
0.151027
0.133251
0.117996
0.1069
0.09766
0.0908766
0.0850262
0.0802841
0.0759869
0.0718215
0.0674848
0.063089
0.0577262
0.0523707
0.0449934
0.0385853
0.0242484
0.0247458
-0.0286168
0.0606173
39.2626
39.4429
37.583
35.5952
33.7169
31.5428
29.1022
26.7127
24.4926
22.4001
20.4275
18.5998
16.9209
15.3798
13.9671
12.6757
11.4973
10.423
9.44419
8.55321
7.74266
7.00569
6.33592
5.72752
5.17509
4.6737
4.21881
3.80628
3.4323
3.09342
2.78643
2.50848
2.25687
2.02921
1.82327
1.63707
1.46875
1.31662
1.17915
1.05493
0.942735
0.841366
0.74966
0.66687
0.59175
0.523844
0.462066
0.405956
0.355259
0.309409
0.268636
0.232101
0.200807
0.174049
0.151389
0.133458
0.118195
0.106876
0.0975429
0.090583
0.0846376
0.0797766
0.0754053
0.0711879
0.0668243
0.0623967
0.0570673
0.0516876
0.0443911
0.0379604
0.024004
0.0239656
-0.0257824
0.0556283
32.0405
32.7369
32.0568
31.0806
29.8954
28.3641
26.5529
24.6673
22.8271
21.0453
19.3295
17.706
16.1895
14.7798
13.4738
12.269
11.161
10.1442
9.21274
8.36067
7.58225
6.87185
6.22413
5.63405
5.09689
4.60823
4.16397
3.76034
3.39381
3.06117
2.75942
2.48585
2.23793
2.01336
1.81002
1.626
1.4595
1.3089
1.17272
1.04959
0.938289
0.837676
0.746621
0.664346
0.589711
0.522176
0.460778
0.405008
0.354598
0.309029
0.268467
0.232169
0.20094
0.174253
0.151608
0.133543
0.118272
0.106748
0.0973217
0.0901921
0.0841522
0.0791746
0.0747321
0.0704653
0.0660772
0.061622
0.056329
0.0509329
0.0437277
0.0372767
0.0237463
0.0231357
-0.0227431
0.0503238
24.8874
25.9554
26.0949
25.9447
25.4571
24.5789
23.4037
22.0724
20.6819
19.2732
17.8719
16.507
15.2008
13.9634
12.799
11.7102
10.6974
9.75903
8.89218
8.09351
7.35927
6.68552
6.06825
5.50351
4.98746
4.51643
4.08691
3.6956
3.33941
3.01543
2.72096
2.4535
2.21071
1.99047
1.79077
1.60981
1.44589
1.29746
1.16311
1.04153
0.931528
0.83201
0.741899
0.660392
0.586458
0.519484
0.45863
0.403347
0.353355
0.30818
0.267919
0.231935
0.200835
0.174253
0.151661
0.133479
0.118213
0.106497
0.0969787
0.0896821
0.083547
0.0784563
0.0739432
0.0696309
0.065225
0.0607468
0.0554986
0.0500933
0.0429929
0.0365297
0.0234706
0.0222583
-0.0195898
0.0448611
17.8768
19.2162
19.9229
20.3908
20.5157
20.2531
19.6877
18.9201
18.0209
17.0355
15.9995
14.9452
13.899
12.8786
11.8954
10.9574
10.0699
9.23554
8.45516
7.72837
7.05394
6.42999
5.85423
5.32411
4.83696
4.39009
3.98078
3.6064
3.26438
2.9523
2.66781
2.40874
2.173
1.95869
1.76399
1.58723
1.42685
1.28141
1.14958
1.03013
0.921931
0.823932
0.735124
0.6547
0.581725
0.515553
0.455435
0.400813
0.351388
0.30674
0.266892
0.231317
0.200437
0.174016
0.151528
0.133273
0.118018
0.106135
0.0965266
0.0890702
0.0828412
0.0776399
0.0730582
0.0687012
0.0642807
0.0597857
0.0545852
0.0491812
0.042197
0.0357279
0.0231801
0.0213536
-0.0164138
0.0394063
11.178
12.6932
13.7789
14.6765
15.2798
15.5419
15.5195
15.2804
14.8715
14.33
13.6906
12.9855
12.2417
11.4806
10.7187
9.9684
9.23941
8.53853
7.87034
7.23775
6.64232
6.08459
5.56433
5.08072
4.63256
4.21837
3.83646
3.48505
3.16232
2.86642
2.59553
2.34787
2.12173
1.91549
1.72757
1.55653
1.40097
1.25958
1.13118
1.01462
0.908853
0.812914
0.725865
0.646917
0.575231
0.510149
0.451008
0.397259
0.34859
0.304623
0.265322
0.230263
0.199704
0.173503
0.151178
0.132892
0.117669
0.105647
0.0959516
0.0883419
0.0820179
0.0767107
0.0720594
0.0676605
0.0632311
0.0587248
0.0535793
0.0481861
0.0413314
0.0348688
0.0228688
0.0204258
-0.0133054
0.0341122
5.03106
6.6208
7.92713
9.08913
10.0211
10.6803
11.0962
11.3075
11.3416
11.2234
10.9796
10.6368
10.219
9.74711
9.2389
8.70942
8.17109
7.6339
7.1056
6.5921
6.09776
5.62563
5.17772
4.75519
4.35853
3.98772
3.64235
3.3217
3.02484
2.75071
2.49814
2.26588
2.05271
1.85736
1.67863
1.5153
1.36623
1.23033
1.10653
0.993858
0.891375
0.798205
0.713508
0.636544
0.566566
0.502944
0.445083
0.392467
0.344776
0.301678
0.263088
0.228673
0.198561
0.172669
0.150576
0.132328
0.117156
0.105035
0.0952589
0.087513
0.0810942
0.0756888
0.070968
0.06653
0.0620932
0.0575814
0.052494
0.0471233
0.0404098
0.0339642
0.0225403
0.0194988
-0.0103402
0.0291081
-0.247443
1.31007
2.6912
3.96711
5.07646
5.98595
6.70594
7.25363
7.64117
7.88128
7.99018
7.9858
7.88589
7.70738
7.46609
7.17648
6.8514
6.50207
6.13802
5.76719
5.39609
5.02994
4.67281
4.32781
3.99719
3.68251
3.38474
3.10441
2.84166
2.59634
2.36809
2.15636
1.96049
1.77973
1.61328
1.4603
1.31995
1.19138
1.07377
0.966311
0.868221
0.778756
0.697196
0.622882
0.555169
0.493482
0.437298
0.386149
0.339724
0.297732
0.260056
0.226443
0.196922
0.171444
0.149663
0.131526
0.116442
0.104264
0.0944228
0.0865558
0.0800468
0.0745514
0.0697627
0.065289
0.0608506
0.0563402
0.0513179
0.0459819
0.0394226
0.033012
0.0221865
0.0185781
-0.00757863
0.0244884
-4.18829
-2.75644
-1.42616
-0.168211
0.977169
1.98668
2.86048
3.60262
4.21537
4.70262
5.07152
5.3315
5.49314
5.56766
5.56656
5.50125
5.38274
5.2213
5.02636
4.80634
4.56867
4.31974
4.06497
3.80888
3.55512
3.30664
3.06568
2.83396
2.6127
2.40272
2.2045
2.01826
1.84398
1.68151
1.53051
1.3906
1.26127
1.14201
1.03225
0.931411
0.838904
0.754152
0.676576
0.605632
0.540785
0.481544
0.42746
0.378134
0.333275
0.292636
0.25609
0.223443
0.19467
0.16973
0.148354
0.130422
0.115475
0.103298
0.0934208
0.085462
0.0788796
0.073309
0.0684619
0.0639582
0.059523
0.0550234
0.0500692
0.044782
0.0383849
0.0320268
0.0218048
0.0176879
-0.00507668
0.0203216
-6.73051
-5.47962
-4.28093
-3.12771
-2.04513
-1.0487
-0.142703
0.670337
1.38752
2.0075
2.53132
2.96208
3.30433
3.56387
3.74749
3.86268
3.91729
3.91928
3.87647
3.79637
3.68599
3.55177
3.39951
3.23433
3.06069
2.88238
2.70258
2.52393
2.34852
2.17803
2.0137
1.85648
1.70698
1.56563
1.4326
1.30794
1.19156
1.08326
0.98278
0.889788
0.803919
0.724777
0.65195
0.585026
0.523596
0.467265
0.415674
0.368493
0.325475
0.286414
0.251191
0.219662
0.191774
0.16749
0.146609
0.128972
0.114221
0.102105