/*--------------------------------*- C++ -*----------------------------------*\
  =========                 |
  \\      /  F ield         | OpenFOAM: The Open Source CFD Toolbox
   \\    /   O peration     | Website:  https://openfoam.org
    \\  /    A nd           | Version:  11
     \\/     M anipulation  |
\*---------------------------------------------------------------------------*/
FoamFile
{
    format      ascii;
    class       surfaceScalarField;
    location    "200";
    object      phi;
}
// * * * * * * * * * * * * * * * * * * * * * * * * * * * * * * * * * * * * * //

dimensions      [0 3 -1 0 0 0 0];

internalField   nonuniform List<scalar> 
21876
(
0.00520616
-0.00520342
-2.74155e-06
0.0107828
-0.00557661
0.0164468
-0.00566402
0.0214096
-0.00496285
0.0264968
-0.00508719
0.0306351
-0.00413824
0.0328309
-0.00219584
0.0314866
0.00134435
0.0308386
0.000647903
0.0312992
-0.00046051
0.0326319
-0.00133272
0.0362838
-0.00365196
0.0400447
-0.00376082
0.0424268
-0.00238214
0.0396763
0.00275053
0.032243
0.00743329
0.021205
0.011038
0.0170769
0.00412803
0.0169799
9.70453e-05
0.0175105
-0.000530607
0.0180597
-0.000549157
0.0184213
-0.000361643
0.0186565
-0.000235232
0.0188973
-0.000240768
0.0192004
-0.000303131
0.0189078
0.000292653
0.0181307
0.000777087
0.017919
0.000211635
0.0177278
0.000191275
0.0175653
0.00016245
0.0174001
0.000165214
0.0172079
0.000192201
0.0169813
0.000226617
0.0167125
0.000268816
0.01639
0.00032246
0.0159948
0.000395248
0.015497
0.000497758
0.0148456
0.000651363
0.013984
0.000861629
0.0124847
0.00149936
0.002641
0.00984366
0.00602233
-0.011227
1.26427e-06
0.0123669
-0.0119211
0.0187611
-0.0120583
0.0245756
-0.0107773
0.0302285
-0.0107401
0.0348512
-0.00876096
0.0378966
-0.00524132
0.038442
0.00079899
0.0389185
0.00017143
0.0399932
-0.00153524
0.0417338
-0.00307328
0.0453137
-0.00723186
0.0488631
-0.00731025
0.0513011
-0.00482016
0.050839
0.00321269
0.0472752
0.0109971
0.0389746
0.0193386
0.0330114
0.0100912
0.0296691
0.0034394
0.0277704
0.00136803
0.0268942
0.000327079
0.0265593
-2.67073e-05
0.0264297
-0.000105672
0.0264428
-0.000253907
0.026594
-0.000454307
0.0263779
0.000508773
0.0257049
0.00145007
0.0253261
0.000590482
0.0249702
0.000547133
0.0246642
0.000468423
0.0243926
0.000436886
0.0241269
0.000457816
0.023849
0.000504548
0.0235435
0.000574285
0.0231963
0.000669754
0.0227874
0.000804101
0.0222973
0.000987864
0.0216642
0.00128443
0.0209175
0.00160839
0.0197016
0.00271522
0.00530879
0.0170338
0.00703492
-0.0182644
2.44621e-06
0.0143239
-0.0192101
0.021625
-0.0193594
0.0283594
-0.0175116
0.0347507
-0.0171314
0.0402012
-0.0142114
0.0441247
-0.00916489
0.0456871
-0.000763369
0.0468146
-0.000956054
0.0483761
-0.00309673
0.0505848
-0.00528199
0.0543373
-0.0109844
0.0581987
-0.0111716
0.0608135
-0.00743492
0.0602435
0.00378263
0.0573843
0.0138563
0.0510972
0.0256257
0.0458478
0.0153405
0.0422198
0.00706742
0.0394637
0.0041242
0.0376613
0.00212944
0.0366548
0.000979797
0.0360653
0.000483775
0.0357614
5.00345e-05
0.0356605
-0.000353414
0.0352129
0.000956411
0.0343703
0.00229268
0.0338733
0.00108748
0.0334334
0.00098701
0.0330376
0.000864176
0.0326745
0.000800056
0.0323169
0.000815376
0.0319467
0.000874746
0.0315479
0.000973047
0.0311037
0.00111394
0.0305905
0.00131731
0.0299843
0.00159414
0.0292242
0.00204449
0.0283059
0.00252669
0.0270153
0.00400581
0.00782135
0.0245027
0.00826217
-0.0265296
3.02227e-06
0.0166852
-0.0276331
0.0250242
-0.0276985
0.0327559
-0.0252434
0.0400096
-0.0243852
0.0463311
-0.0205329
0.0512244
-0.0140582
0.0538339
-0.00337295
0.0556551
-0.00277725
0.0577477
-0.00518931
0.0605421
-0.00807636
0.0646171
-0.0150593
0.0687882
-0.0153428
0.0718139
-0.0104606
0.071531
0.00406546
0.0684443
0.016943
0.0623008
0.0317693
0.0571802
0.0204611
0.0540482
0.0101994
0.051595
0.00657733
0.0496756
0.00404882
0.04839
0.0022654
0.0475004
0.00137344
0.0469185
0.000631884
0.046582
-1.68906e-05
0.0459467
0.00159168
0.0449192
0.00332025
0.0442445
0.00176216
0.0436936
0.0015379
0.0431984
0.00135942
0.0427429
0.00125554
0.0422983
0.00125992
0.0418424
0.00133068
0.0413569
0.00145855
0.0408229
0.00164791
0.0402146
0.00192564
0.0395035
0.0023052
0.0386318
0.00291622
0.03757
0.00358855
0.0361791
0.00539663
0.0102866
0.0337139
0.00972409
-0.0362571
3.39534e-06
0.0194696
-0.0373786
0.0289943
-0.0372231
0.0378354
-0.0340845
0.0460877
-0.0326375
0.0534
-0.0278451
0.0593964
-0.0200546
0.0632875
-0.0072641
0.0662053
-0.005695
0.0689943
-0.00797835
0.0723718
-0.0114538
0.0767212
-0.0194088
0.0811074
-0.019729
0.0844937
-0.0138469
0.0847748
0.00378438
0.0818184
0.0198993
0.0754557
0.038132
0.0696374
0.0262793
0.0662922
0.0135446
0.0640708
0.0087988
0.0623673
0.00575234
0.0612227
0.00340995
0.0604032
0.00219291
0.0598084
0.00122676
0.0594118
0.000379638
0.0587374
0.00226616
0.0576422
0.00441538
0.0568444
0.00255995
0.0562078
0.00217457
0.0556305
0.00193665
0.0550979
0.00178818
0.0545834
0.00177439
0.0540597
0.00185441
0.0535049
0.0020133
0.0528983
0.00225461
0.0522127
0.00261123
0.0514169
0.00310092
0.0504603
0.00387288
0.0492971
0.00475177
0.0478836
0.00681006
0.0126687
0.0455016
0.0114599
-0.0477207
3.69768e-06
0.0227541
-0.0486728
0.0336498
-0.0481188
0.0437432
-0.044178
0.0531351
-0.0420294
0.0615645
-0.0362744
0.0687815
-0.0272716
0.0740838
-0.0125665
0.0783891
-0.0100002
0.082094
-0.0116833
0.0861637
-0.0155235
0.0908501
-0.0240951
0.0954441
-0.024323
0.0991792
-0.017582
0.100216
0.00274772
0.0979353
0.0221799
0.091815
0.0442523
0.0851385
0.0329557
0.0808744
0.0178088
0.0782917
0.0113815
0.07649
0.00755401
0.0753907
0.00450923
0.0747026
0.00288104
0.0742393
0.00169
0.0739462
0.000672798
0.0734199
0.00279247
0.0724503
0.00538498
0.0716632
0.00334697
0.0710404
0.0027974
0.0704677
0.00250936
0.0699285
0.00232734
0.0694052
0.00229778
0.0688696
0.00238995
0.0682981
0.00258478
0.0676692
0.00288352
0.066957
0.00332344
0.0661298
0.00392811
0.0651494
0.00485325
0.0639604
0.00594078
0.0626294
0.00814115
0.0148451
0.0604529
0.0135273
-0.0612519
3.98541e-06
0.0266504
-0.061796
0.0391512
-0.0606196
0.0506828
-0.0557096
0.0613798
-0.0527264
0.0710676
-0.0459622
0.0796137
-0.0358177
0.0864049
-0.0193577
0.0923174
-0.0159128
0.0972008
-0.0165666
0.102127
-0.0204501
0.107256
-0.0292237
0.112094
-0.0291607
0.116188
-0.0216765
0.118069
0.000866658
0.11686
0.0233888
0.111625
0.0494879
0.104532
0.0400486
0.0991868
0.0231537
0.0958491
0.0147192
0.093583
0.00982015
0.0922199
0.00587228
0.0914363
0.00366467
0.0909762
0.00215014
0.0907209
0.000928012
0.0903316
0.00318178
0.0895456
0.00617098
0.0888408
0.00405183
0.0883015
0.00333669
0.0878158
0.00299502
0.087351
0.00279216
0.0868951
0.00275371
0.0864229
0.00286208
0.08591
0.00309768
0.0853352
0.00345837
0.0846757
0.00398291
0.0839025
0.00470132
0.0829956
0.00576016
0.0818979
0.00703844
0.0807772
0.00926189
0.0166491
0.0789732
0.0160011
-0.0772573
4.28101e-06
0.0313037
-0.0770986
0.0457068
-0.0750226
0.0589197
-0.0689225
0.071125
-0.0649316
0.082233
-0.0570703
0.0922199
-0.0458046
0.100554
-0.027692
0.108201
-0.0235593
0.114498
-0.0228638
0.120467
-0.0264186
0.126184
-0.0349412
0.13136
-0.034337
0.135859
-0.026175
0.138628
-0.00190212
0.138727
0.0232899
0.134966
0.0532485
0.128203
0.0468115
0.122046
0.0293112
0.117833
0.0189318
0.114918
0.0127355
0.113082
0.00770836
0.111984
0.00476197
0.111344
0.00279027
0.110976
0.00129589
0.110584
0.00357437
0.109889
0.00686525
0.109214
0.00472706
0.108708
0.00384271
0.108287
0.00341597
0.107897
0.00318196
0.107523
0.00312778
0.107142
0.00324386
0.106725
0.00351382
0.106253
0.00393114
0.105704
0.0045311
0.105057
0.00534857
0.104312
0.00650542
0.103421
0.00792895
0.102619
0.010064
0.0179259
0.101343
0.0189756
-0.0962375
4.59792e-06
0.0368967
-0.0950197
0.0535791
-0.0917051
0.0687883
-0.0841316
0.0827581
-0.0789015
0.0954826
-0.0697947
0.107037
-0.057359
0.116966
-0.0376208
0.126383
-0.0329769
0.134261
-0.0307413
0.141457
-0.0336147
0.147946
-0.0414305
0.153614
-0.0400043
0.158611
-0.0311725
0.162307
-0.00559818
0.163843
0.0217544
0.162008
0.0550829
0.156407
0.052413
0.150022
0.0356964
0.14505
0.0239036
0.141454
0.0163316
0.13907
0.0100919
0.137541
0.00629144
0.136595
0.00373584
0.136004
0.00188723
0.135492
0.00408634
0.134792
0.00756471
0.134083
0.00543587
0.133531
0.00439495
0.133099
0.00384832
0.132724
0.00355717
0.132381
0.00347001
0.132051
0.00357464
0.131705
0.00385931
0.131322
0.00431393
0.130888
0.00496591
0.130385
0.00585159
0.129832
0.00705786
0.129205
0.00855591
0.128748
0.0105214
0.018617
0.128057
0.0225666
-0.118809
4.93081e-06
0.0436529
-0.116106
0.0630889
-0.111141
0.0806958
-0.101739
0.096756
-0.0949617
0.111344
-0.0843823
0.124624
-0.0706395
0.136221
-0.0492175
0.147393
-0.0441487
0.156931
-0.0402795
0.165506
-0.0421899
0.172964
-0.0488886
0.179317
-0.0463577
0.184964
-0.0368193
0.189634
-0.0102683
0.192654
0.0187344
0.193006
0.0547313
0.189339
0.0560803
0.183567
0.0414684
0.178237
0.0292329
0.174078
0.0204911
0.171174
0.012996
0.16918
0.00828514
0.167864
0.00505173
0.166989
0.00276259
0.166296
0.00477899
0.16554
0.00832098
0.164781
0.00619456
0.164154
0.00502203
0.163666
0.0043368
0.163262
0.00396105
0.162911
0.00382115
0.162592
0.00389348
0.162283
0.00416847
0.161963
0.00463369
0.161623
0.00530626
0.161255
0.00621889
0.160891
0.00742219
0.160534
0.00891311
0.160389
0.0106662
0.0187794
0.160227
0.0269141
-0.145728
5.28076e-06
0.0518413
-0.141033
0.0746209
-0.133921
0.0951298
-0.122247
0.113693
-0.113524
0.130461
-0.10115
0.145682
-0.0858609
0.15907
-0.0626056
0.171981
-0.0570597
0.183198
-0.0514963
0.193247
-0.0522388
0.201854
-0.0574962
0.209104
-0.0536068
0.215579
-0.0432951
0.221289
-0.0159776
0.225783
0.0142398
0.228371
0.0521439
0.2272
0.0572505
0.222996
0.0456731
0.218037
0.0341912
0.213666
0.0248624
0.210396
0.0162658
0.208002
0.0106797
0.206318
0.00673605
0.205142
0.00393831
0.204247
0.0056735
0.203414
0.00915442
0.202619
0.00698987
0.201938
0.00570297
0.201399
0.00487523
0.200969
0.00439158
0.200612
0.00417738
0.20031
0.00419611
0.200042
0.0044358
0.199795
0.00488135
0.199562
0.00553904
0.199348
0.00643303
0.199187
0.00758282
0.19911
0.00899079
0.199265
0.0105107
0.0185021
0.199542
0.0321861
-0.17792
5.63971e-06
0.0617829
-0.17063
0.0886335
-0.160771
0.11267
-0.146284
0.134254
-0.135109
0.153613
-0.12051
0.171073
-0.10332
0.186452
-0.0779851
0.201145
-0.0717524
0.214052
-0.0644029
0.225625
-0.0638119
0.235526
-0.0673972
0.243864
-0.0619452
0.251347
-0.0507781
0.258176
-0.0228062
0.26411
0.00830582
0.26881
0.0474436
0.270372
0.0556884
0.268554
0.0474914
0.264917
0.0378278
0.260994
0.0287855
0.257725
0.0195353
0.255142
0.0132621
0.2532
0.00867806
0.251777
0.00536114
0.250708
0.00674302
0.249808
0.0100538
0.249006
0.00779229
0.248321
0.0063879
0.247778
0.00541798
0.247361
0.00480869
0.247042
0.0044968
0.246801
0.00443743
0.246624
0.00461277
0.246501
0.00500354
0.246434
0.00560608
0.246434
0.00643375
0.246534
0.00748221
0.246778
0.0087473
0.247269
0.0100195
0.0178257
0.247945
0.0385841
-0.21651
6.00688e-06
0.0738623
-0.205908
0.105675
-0.192584
0.13401
-0.174619
0.159264
-0.160362
0.181742
-0.142988
0.201845
-0.123424
0.219518
-0.0956579
0.236138
-0.0883728
0.250802
-0.0790669
0.263952
-0.0769619
0.275261
-0.0787061
0.284853
-0.0715366
0.293498
-0.059423
0.301525
-0.0308333
0.308862
0.00096885
0.315467
0.0408386
0.319673
0.0514816
0.320701
0.0464638
0.319288
0.0392413
0.316699
0.0313742
0.314049
0.0221851
0.311703
0.0156084
0.309786
0.0105952
0.308297
0.00685006
0.30717
0.00786979
0.30628
0.0109441
0.305534
0.00853757
0.304923
0.00699918
0.304456
0.00588455
0.304129
0.00513655
0.303921
0.00470401
0.30382
0.00453923
0.303814
0.00461803
0.303902
0.00491562
0.304089
0.00541974
0.304389
0.00613354
0.304835
0.00703593
0.305468
0.00811432
0.30636
0.00912717
0.0167263
0.30746
0.0463533
-0.26287
6.37802e-06
0.0885455
-0.2481
0.126409
-0.230448
0.159989
-0.208199
0.189717
-0.190091
0.215984
-0.169255
0.239272
-0.146712
0.259666
-0.116051
0.278494
-0.107201
0.295092
-0.0956645
0.309932
-0.0918023
0.322772
-0.0915452
0.333763
-0.0825279
0.343701
-0.0693613
0.352996
-0.040128
0.361716
-0.00775093
0.370013
0.0325414
0.376578
0.0449161
0.380493
0.042549
0.381873
0.037861
0.381477
0.0317706
0.380226
0.0234358
0.378744
0.0170905
0.377337
0.0120029
0.376142
0.00804487
0.375221
0.00879071
0.374529
0.0116359
0.373985
0.00908139
0.37358
0.00740393
0.37332
0.00614541
0.373204
0.00525262
0.373225
0.00468204
0.373378
0.00438659
0.373659
0.00433766
0.374069
0.00450522
0.374618
0.00487021
0.375324
0.00542811
0.376213
0.00614725
0.377317
0.00700963
0.378687
0.00775719
0.0151394
0.380274
0.055796
-0.318673
6.75139e-06
0.106406
-0.298711
0.151652
-0.275694
0.191637
-0.248183
0.226836
-0.22529
0.257735
-0.200153
0.284906
-0.173883
0.308595
-0.13974
0.330067
-0.128673
0.348915
-0.114513
0.365669
-0.108556
0.380218
-0.106094
0.392776
-0.0950859
0.404142
-0.0807273
0.414785
-0.0507706
0.424884
-0.0178503
0.434715
0.0227112
0.443312
0.0363186
0.449865
0.0359962
0.454178
0.0335482
0.456535
0.0294131
0.457403
0.0225685
0.457492
0.0170008
0.457224
0.0122709
0.456854
0.00841495
0.456569
0.00907587
0.456416
0.0117887
0.456344
0.00915314
0.456376
0.00737192
0.45653
0.00599226
0.456817
0.00496541
0.457245
0.00425391
0.457818
0.00381366
0.458541
0.00361493
0.459421
0.00362477
0.460471
0.00382001
0.461708
0.0041918
0.463152
0.00470309
0.464827
0.00533418
0.466765
0.00581889
0.012976
0.468929
0.0672847
-0.385965
7.12386e-06
0.128152
-0.359578
0.18241
-0.329951
0.230224
-0.295998
0.272125
-0.267191
0.308707
-0.236735
0.340651
-0.205828
0.36838
-0.167469
0.393103
-0.153396
0.414681
-0.136091
0.433714
-0.12759
0.450254
-0.122635
0.464608
-0.10944
0.477576
-0.0936955
0.489684
-0.0628787
0.5012
-0.0293661
0.512488
0.0114233
0.522865
0.0259417
0.531716
0.0271446
0.538783
0.0264812
0.544065
0.0241314
0.547507
0.0191266
0.549764
0.014744
0.551266
0.0107689
0.552326
0.00735425
0.553224
0.00817838
0.554086
0.0109268
0.554894
0.00834457
0.555717
0.00654888
0.5566
0.00510951
0.557576
0.00398934
0.55867
0.00315978
0.559901
0.00258304
0.561284
0.00223223
0.562833
0.0020752
0.564565
0.00208824
0.566495
0.00226176
0.568641
0.00255757
0.571018
0.00295718
0.573645
0.00319153
0.010118
0.576503
0.0812741
-0.467246
7.48943e-06
0.154648
-0.432952
0.219917
-0.39522
0.277314
-0.353395
0.327438
-0.317315
0.37101
-0.280306
0.408843
-0.243661
0.441559
-0.200185
0.470331
-0.182167
0.495293
-0.161053
0.517133
-0.149429
0.536079
-0.141581
0.552559
-0.125919
0.567386
-0.108523
0.581153
-0.0766454
0.594206
-0.0424189
0.606981
-0.00135181
0.619013
0.0139092
0.629891
0.0162669
0.639422
0.0169504
0.647509
0.0160439
0.653667
0.0129688
0.658435
0.00997588
0.662178
0.00702585
0.665203
0.00432972
0.667826
0.00555527
0.670225
0.00852764
0.672404
0.0061657
0.67447
0.00448333
0.676497
0.00308183
0.678545
0.00194181
0.680657
0.00104769
0.682868
0.000371747
0.685206
-0.000106092
0.687695
-0.000413192
0.690353
-0.00057014
0.693199
-0.000583926
0.696247
-0.000490577
0.69951
-0.000305256
0.702997
-0.000296334
0.00640086
0.706714
0.0890459
-0.556299
7.14908e-06
0.169349
-0.513255
0.240677
-0.466547
0.303307
-0.416026
0.357865
-0.371872
0.405142
-0.327583
0.446021
-0.284541
0.481266
-0.23543
0.511941
-0.212842
0.538418
-0.18753
0.561413
-0.172425
0.581303
-0.161471
0.598605
-0.143221
0.614091
-0.124009
0.628378
-0.0909318
0.641852
-0.055893
0.654967
-0.0144668
0.667434
0.00144154
0.679034
0.00466701
0.689692
0.0062925
0.699342
0.00639442
0.707275
0.00503547
0.713904
0.0033466
0.719486
0.00144374
0.724262
-0.000446314
0.728519
0.00129905
0.732433
0.0046132
0.736012
0.00258638
0.739373
0.00112243
0.742603
-0.000147702
0.74577
-0.00122576
0.748932
-0.00211346
0.75213
-0.00282714
0.755403
-0.00337816
0.758776
-0.00378686
0.762274
-0.00406839
0.765916
-0.00422517
0.769714
-0.0042892
0.773681
-0.00427144
0.777822
-0.00443739
0.00205646
0.782166
0.0956764
-0.651982
6.73591e-06
0.181895
-0.599474
0.258401
-0.543054
0.32551
-0.483135
0.383868
-0.43023
0.434328
-0.378043
0.477831
-0.328044
0.515255
-0.272855
0.547589
-0.245176
0.575384
-0.215325
0.599384
-0.196424
0.620074
-0.182161
0.638049
-0.161197
0.654051
-0.140011
0.668718
-0.105598
0.682469
-0.0696439
0.695768
-0.0277665
0.708446
-0.0112359
0.720405
-0.00729241
0.731668
-0.00497032
0.74223
-0.00416793
0.751298
-0.00403249
0.759212
-0.00456738
0.766153
-0.00549741
0.772303
-0.00659613
0.777903
-0.00430108
0.783114
-0.000597823
0.787937
-0.00223654
0.792482
-0.00342226
0.796834
-0.00449962
0.801064
-0.00545546
0.805229
-0.00627889
0.809377
-0.00697536
0.813546
-0.00754736
0.817767
-0.00800764
0.822064
-0.00836517
0.826456
-0.00861708
0.830957
-0.00879065
0.835578
-0.00889246
0.840325
-0.00918395
-0.00286456
0.845246
0.102946
-0.754935
6.3924e-06
0.195664
-0.692192
0.277886
-0.625275
0.349957
-0.555206
0.412556
-0.492829
0.466601
-0.432089
0.513099
-0.374541
0.553034
-0.31279
0.587359
-0.279501
0.616774
-0.244741
0.642058
-0.221708
0.663789
-0.203892
0.682635
-0.180043
0.699328
-0.156703
0.714537
-0.120807
0.728712
-0.0838193
0.742333
-0.0413874
0.755306
-0.0242089
0.767619
-0.0196055
0.779366
-0.0167167
0.790601
-0.0154035
0.8005
-0.0139311
0.809374
-0.0134412
0.817363
-0.0134866
0.82461
-0.0138431
0.83132
-0.0110112
0.837635
-0.00691266
0.843548
-0.00814926
0.849156
-0.00903098
0.854539
-0.00988244
0.859762
-0.0106786
0.864881
-0.0113981
0.869943
-0.0120365
0.874983
-0.0125882
0.880034
-0.0130587
0.88512
-0.0134509
0.89026
-0.0137565
0.895467
-0.0139983
0.900753
-0.0141786
0.906123
-0.014554
-0.00838374
0.911643
0.110894
-0.865835
6.10005e-06
0.210732
-0.79203
0.299229
-0.713772
0.376763
-0.63274
0.444053
-0.56012
0.502087
-0.490122
0.551941
-0.424396
0.594708
-0.355556
0.63133
-0.316123
0.66264
-0.276051
0.689457
-0.248525
0.712446
-0.226881
0.732343
-0.19994
0.749887
-0.174248
0.765788
-0.136708
0.780528
-0.0985594
0.794607
-0.0554661
0.807981
-0.0375832
0.820699
-0.032323
0.832908
-0.0289259
0.844716
-0.0272114
0.855285
-0.0245001
0.864922
-0.0230789
0.87375
-0.0223146
0.881889
-0.0219822
0.88952
-0.0186423
0.896769
-0.0141617
0.903623
-0.0150024
0.910167
-0.0155752
0.916472
-0.0161874
0.922598
-0.0168045
0.928595
-0.0173959
0.934508
-0.017949
0.940371
-0.0184509
0.946212
-0.0189004
0.952056
-0.0192949
0.957921
-0.0196214
0.963821
-0.019898
0.969765
-0.0201232
0.97576
-0.0205487
-0.0145069
0.981883
0.11957
-0.985411
5.84633e-06
0.227191
-0.899651
0.322559
-0.80914
0.406087
-0.716268
0.478538
-0.632571
0.540975
-0.55256
0.594556
-0.477976
0.640477
-0.401478
0.679695
-0.355341
0.713162
-0.309518
0.741748
-0.277111
0.766197
-0.25133
0.787318
-0.22106
0.805868
-0.192798
0.822602
-0.153442
0.838038
-0.113996
0.852703
-0.0701306
0.866587
-0.0514678
0.879784
-0.0455195
0.892485
-0.041627
0.90484
-0.0395664
0.916006
-0.0356665
0.926299
-0.0333715
0.935835
-0.0318503
0.944725
-0.0308721
0.953135
-0.0270525
0.961182
-0.0222085
0.968847
-0.0226675
0.976208
-0.0229366
0.983328
-0.0233077
0.990261
-0.0237377
0.997054
-0.0241883
1.00374
-0.0246396
1.01037
-0.0250721
1.01694
-0.025479
1.0235
-0.0258523
1.03006
-0.026175
1.03662
-0.026461
1.0432
-0.0267055
1.04981
-0.0271546
-0.0212252
1.05652
0.129035
-1.11445
5.62148e-06
0.245154
-1.01577
0.348033
-0.912019
0.43812
-0.806354
0.51623
-0.710682
0.58351
-0.619839
0.641202
-0.535668
0.690612
-0.450888
0.732726
-0.397455
0.768613
-0.345405
0.7992
-0.307698
0.825308
-0.277438
0.847821
-0.243573
0.867525
-0.212502
0.885227
-0.171144
0.901484
-0.130254
0.916854
-0.0854998
0.931353
-0.065967
0.945109
-0.0592756
0.958352
-0.0548702
0.971268
-0.0524823
0.983009
-0.0474072
0.993903
-0.0442658
1.00407
-0.0420177
1.01362
-0.0404215
1.02271
-0.0361435
1.03145
-0.0309521
1.03983
-0.0310432
1.04791
-0.0310167
1.05575
-0.0311494
1.0634
-0.0313905
1.07091
-0.0316943
1.07831
-0.0320344
1.08562
-0.0323854
1.09287
-0.032735
1.10009
-0.0330708
1.10729
-0.0333719
1.11448
-0.0336486
1.12167
-0.0338931
1.12886
-0.0343458
-0.0285172
1.13615
0.139357
-1.25381
5.41947e-06
0.264749
-1.14116
0.37583
-1.0231
0.473087
-0.903611
0.557393
-0.794988
0.629982
-0.692428
0.692193
-0.597879
0.745447
-0.504142
0.790769
-0.442777
0.829346
-0.383982
0.862167
-0.340519
0.890136
-0.305407
0.91421
-0.267647
0.935216
-0.233509
0.954018
-0.189946
0.971216
-0.147452
0.987402
-0.101685
1.00261
-0.0811797
1.01701
-0.0736714
1.03085
-0.068713
1.04436
-0.0659898
1.05668
-0.0597252
1.06815
-0.0557403
1.07891
-0.0527748
1.08906
-0.050573
1.09877
-0.045848
1.10813
-0.0403194
1.11714
-0.0400518
1.12586
-0.039736
1.13435
-0.0396336
1.14264
-0.0396858
1.15079
-0.03984
1.15882
-0.0400635
1.16676
-0.0403251
1.17463
-0.0406079
1.18245
-0.0408951
1.19024
-0.0411622
1.19801
-0.0414161
1.20576
-0.0416465
1.21351
-0.042088
-0.0363524
1.22134
0.150613
-1.40443
5.23297e-06
0.286121
-1.27667
0.406156
-1.14314
0.511244
-1.0087
0.602325
-0.886069
0.680729
-0.770832
0.747898
-0.665048
0.805372
-0.561616
0.854232
-0.491637
0.895781
-0.425532
0.931082
-0.37582
0.961117
-0.335442
0.986927
-0.293457
1.00939
-0.255968
1.02942
-0.20998
1.04768
-0.165707
1.06478
-0.118795
1.0808
-0.097199
1.09592
-0.0887836
1.11042
-0.0832135
1.12455
-0.0801259
1.13746
-0.0726358
1.14951
-0.0677903
1.16084
-0.0640997
1.17156
-0.0612905
1.18183
-0.0561197
1.19177
-0.0502569
1.20135
-0.0496336
1.21064
-0.0490308
1.2197
-0.0486943
1.22857
-0.0485571
1.23729
-0.0485596
1.24589
-0.0486625
1.2544
-0.0488296
1.26283
-0.0490387
1.2712
-0.0492692
1.27953
-0.0494935
1.28783
-0.049715
1.29611
-0.049921
1.30436
-0.0503401
-0.0446931
1.3127
0.16289
-1.56733
5.05985e-06
0.309435
-1.42321
0.439242
-1.27294
0.552883
-1.12234
0.651369
-0.984556
0.736135
-0.855598
0.808735
-0.737647
0.870838
-0.623719
0.923588
-0.544387
0.968412
-0.470356
1.00645
-0.413856
1.03877
-0.367763
1.0665
-0.321186
1.09056
-0.280035
1.11196
-0.23138
1.13139
-0.185136
1.14953
-0.136931
1.16644
-0.114114
1.18234
-0.104685
1.19756
-0.0984272
1.21236
-0.0949278
1.22588
-0.0861585
1.23851
-0.0804187
1.25039
-0.0759804
1.26165
-0.0725489
1.27245
-0.0669241
1.28292
-0.0607229
1.29303
-0.0597399
1.30284
-0.0588474
1.31242
-0.0582745
1.32181
-0.0579452
1.33105
-0.0577928
1.34015
-0.0577713
1.34916
-0.0578391
1.35809
-0.0579693
1.36696
-0.0581371
1.37578
-0.0583118
1.38456
-0.0584937
1.39331
-0.0586676
1.40202
-0.0590561
-0.0534959
1.41082
0.176285
-1.74362
4.8948e-06
0.334873
-1.5818
0.475347
-1.41342
0.598329
-1.24532
0.704909
-1.09114
0.796634
-0.947324
0.87518
-0.816193
0.942355
-0.690893
0.999376
-0.601408
1.0478
-0.518778
1.08885
-0.454903
1.12368
-0.402599
1.15352
-0.351027
1.17936
-0.305872
1.20226
-0.254284
1.22298
-0.205857
1.24225
-0.156196
1.26015
-0.13201
1.2769
-0.121443
1.29288
-0.114405
1.30838
-0.110429
1.32254
-0.100312
1.33575
-0.0936294
1.34817
-0.0884078
1.35995
-0.0843278
1.37126
-0.0782318
1.38222
-0.0716808
1.39281
-0.0703274
1.4031
-0.0691372
1.41314
-0.0683212
1.42299
-0.0677944
1.43268
-0.067482
1.44224
-0.0673313
1.4517
-0.0672949
1.46107
-0.067341
1.47037
-0.0674408
1.47962
-0.0675603
1.48882
-0.0676967
1.49799
-0.0678327
1.50712
-0.0681841
-0.062711
1.51633
0.190906
-1.93453
4.73578e-06
0.362641
-1.75354
0.514764
-1.56554
0.64795
-1.37851
0.763376
-1.20656
0.862713
-1.04666
0.947769
-0.90125
1.0205
-0.763623
1.0822
-0.663114
1.13458
-0.57115
1.17893
-0.499259
1.21653
-0.440199
1.24869
-0.383187
1.27647
-0.333652
1.30103
-0.278836
1.32316
-0.22799
1.34366
-0.176693
1.36262
-0.15097
1.38029
-0.139122
1.39708
-0.131193
1.41331
-0.126658
1.42811
-0.115109
1.4419
-0.107423
1.45487
-0.101371
1.46714
-0.0966058
1.47892
-0.0900128
1.49034
-0.0830939
1.50136
-0.0813527
1.51208
-0.0798512
1.52254
-0.0787816
1.53279
-0.0780483
1.54288
-0.0775685
1.55283
-0.077282
1.56267
-0.0771354
1.57242
-0.0770918
1.5821
-0.0771182
1.59171
-0.0771773
1.60128
-0.0772632
1.6108
-0.077356
1.62028
-0.0776649
-0.072281
1.62985
0.206874
-2.14141
4.58043e-06
0.392969
-1.93963
0.557818
-1.73039
0.702155
-1.52284
0.827253
-1.33166
0.934919
-1.15433
1.0271
-0.993433
1.10592
-0.842438
1.17276
-0.729957
1.22947
-0.627854
1.27745
-0.547245
1.31809
-0.480832
1.35279
-0.417888
1.38269
-0.363558
1.40905
-0.305188
1.43272
-0.251661
1.45455
-0.198525
1.47465
-0.171076
1.49331
-0.157781
1.51095
-0.14883
1.52793
-0.143634
1.54338
-0.130559
1.55775
-0.121795
1.57123
-0.114853
1.58398
-0.109356
1.5962
-0.102232
1.60803
-0.0949207
1.61944
-0.0927677
1.63053
-0.0909362
1.64134
-0.0895976
1.65194
-0.0886456
1.66236
-0.087988
1.67264
-0.087557
1.68279
-0.0872928
1.69285
-0.087153
1.70284
-0.0871001
1.71275
-0.0870935
1.72261
-0.0871238
1.73243
-0.0871688
1.74219
-0.0874304
-0.082139
1.75205
0.224325
-2.36574
4.42582e-06
0.426113
-2.14142
0.604872
-1.90915
0.761403
-1.67938
0.897084
-1.46734
1.01387
-1.27111
1.11385
-1.09342
1.19934
-0.927921
1.27181
-0.802432
1.33327
-0.689311
1.38524
-0.599214
1.4292
-0.524791
1.46668
-0.455373
1.49891
-0.395789
1.52723
-0.333503
1.55257
-0.277001
1.57584
-0.221796
1.59717
-0.192406
1.61686
-0.177476
1.63538
-0.16735
1.65312
-0.16137
1.66922
-0.146658
1.68415
-0.13673
1.69813
-0.128828
1.71132
-0.122543
1.72393
-0.114847
1.73612
-0.107111
1.74787
-0.104516
1.75926
-0.10233
1.77037
-0.100703
1.78124
-0.0995159
1.79192
-0.0986672
1.80244
-0.0980807
1.81284
-0.0976895
1.82313
-0.0974456
1.83334
-0.0973067
1.84347
-0.0972284
1.85355
-0.0971979
1.86357
-0.0971904
1.87354
-0.0974
-0.0922057
1.8836
0.243409
-2.60915
4.27315e-06
0.46236
-2.36037
0.656335
-2.10312
0.826209
-1.84925
0.973474
-1.61461
1.10024
-1.39787
1.20878
-1.20197
1.30157
-1.02071
1.38023
-0.881086
1.4469
-0.755981
1.50323
-0.655552
1.55084
-0.572396
1.59137
-0.495902
1.62613
-0.430557
1.65658
-0.363951
1.68373
-0.304145
1.70855
-0.246614
1.73118
-0.215039
1.75196
-0.198257
1.77139
-0.186776
1.78988
-0.179865
1.80662
-0.163396
1.82209
-0.152204
1.83652
-0.14326
1.8501
-0.136119
1.86305
-0.1278
1.87554
-0.119603
1.88755
-0.116528
1.89918
-0.113958
1.9105
-0.112018
1.92156
-0.110576
1.93241
-0.109519
1.94309
-0.108764
1.95364
-0.108234
1.96407
-0.107877
1.9744
-0.107644
1.98466
-0.107487
1.99486
-0.10739
2.00499
-0.107325
2.01507
-0.107478
-0.102386
2.02525
0.264297
-2.87345
4.11692e-06
0.502032
-2.5981
0.712664
-2.31375
0.897148
-2.03373
1.0571
-1.77456
1.19481
-1.53558
1.31273
-1.31989
1.41354
-1.12152
1.49897
-0.966518
1.57136
-0.82837
1.63249
-0.716682
1.68409
-0.623995
1.72795
-0.539763
1.76549
-0.468093
1.79825
-0.396718
1.82735
-0.333239
1.85382
-0.273088
1.87783
-0.239051
1.89974
-0.220168
1.92009
-0.207123
1.93933
-0.199106
1.95668
-0.180744
1.97265
-0.168174
1.98749
-0.158094
2.00139
-0.15002
2.01461
-0.141021
2.02732
-0.132316
2.03951
-0.128718
2.05128
-0.125728
2.06271
-0.123445
2.07386
-0.121724
2.08478
-0.12044
2.09552
-0.119498
2.1061
-0.118817
2.11656
-0.118335
2.12691
-0.117998
2.13718
-0.117755
2.14737
-0.117585
2.15751
-0.117457
2.16758
-0.117549
-0.112565
2.17776
0.287177
-3.16063
3.9602e-06
0.545488
-2.85642
0.774369
-2.54263
0.974864
-2.23423
1.14873
-1.94843
1.29844
-1.68529
1.42665
-1.4481
1.53626
-1.23112
1.62913
-1.05939
1.7078
-0.907039
1.77419
-0.783071
1.83017
-0.679975
1.87768
-0.587269
1.91824
-0.50865
1.95352
-0.432002
1.98472
-0.364435
2.01296
-0.301332
2.03842
-0.264515
2.0615
-0.243247
2.08278
-0.228395
2.10274
-0.219067
2.12065
-0.198661
2.13706
-0.184584
2.15223
-0.173261
2.16638
-0.164166
2.17977
-0.154418
2.19261
-0.145152
2.20487
-0.140979
2.21667
-0.137527
2.22809
-0.134867
2.2392
-0.132838
2.25007
-0.131302
2.26072
-0.130156
2.27121
-0.129306
2.28156
-0.128685
2.2918
-0.128234
2.30194
-0.127896
2.312
-0.127646
2.32199
-0.127449
2.33192
-0.127473
-0.122605
2.34196
0.312263
-3.4729
3.79747e-06
0.593133
-3.13729
0.842024
-2.79152
1.06008
-2.45229
1.24922
-2.13756
1.4121
-1.84818
1.55162
-1.58762
1.67089
-1.35039
1.77194
-1.16045
1.85751
-0.992607
1.92967
-0.855236
1.99046
-0.74076
2.04195
-0.638764
2.0858
-0.552501
2.12382
-0.470018
2.15728
-0.397895
2.18741
-0.331462
2.2144
-0.291505
2.23867
-0.267523
2.26086
-0.250583
2.28149
-0.2397
2.29992
-0.217085
2.31669
-0.201355
2.3321
-0.188668
2.34638
-0.178449
2.35984
-0.167874
2.37267
-0.157986
2.38487
-0.15318
2.39656
-0.149217
2.40783
-0.146138
2.41876
-0.143767
2.42941
-0.141953
2.43983
-0.140577
2.45007
-0.139541
2.46015
-0.138766
2.4701
-0.138188
2.47995
-0.137744
2.48971
-0.137404
2.49939
-0.137131
2.509
-0.137082
-0.132337
2.51873
0.339793
-3.8127
3.63241e-06
0.645419
-3.44291
0.916274
-3.06238
1.15361
-2.68963
1.35952
-2.34346
1.53688
-2.02554
1.68882
-1.73955
1.81871
-1.48029
1.92876
-1.27049
2.02192
-1.08576
2.10043
-0.933747
2.16648
-0.806818
2.22235
-0.694628
2.26979
-0.599945
2.31077
-0.510998
2.34667
-0.433791
2.3788
-0.363595
2.40738
-0.320086
2.43287
-0.293014
2.45595
-0.27366
2.47719
-0.260937
2.49603
-0.23593
2.51306
-0.218383
2.52859
-0.204194
2.54288
-0.192737
2.55625
-0.181245
2.56893
-0.170665
2.5809
-0.165156
2.59231
-0.160626
2.60326
-0.157082
2.61382
-0.15433
2.62407
-0.152204
2.63407
-0.150573
2.64385
-0.149327
2.65347
-0.14838
2.66294
-0.147659
2.67229
-0.147097
2.68154
-0.146658
2.69071
-0.146301
2.69981
-0.146172
-0.14156
2.70903
0.370035
-4.18273
3.45714e-06
0.702856
-3.77573
0.997842
-3.35737
1.25637
-2.94816
1.48071
-2.5678
1.674
-2.21883
1.83961
-1.90517
1.9812
-1.62187
2.10115
-1.39044
2.20265
-1.18726
2.28814
-1.01924
2.35999
-0.878667
2.42064
-0.755278
2.472
-0.651312
2.5162
-0.555192
2.55471
-0.472304
2.58897
-0.397855
2.61921
-0.350324
2.64592
-0.319729
2.66984
-0.29758
2.69159
-0.282684
2.71074
-0.255084
2.7279
-0.235536
2.74339
-0.219689
2.75752
-0.206864
2.77063
-0.194353
2.78296
-0.182998
2.79451
-0.176709
2.80543
-0.171546
2.81583
-0.167484
2.82581
-0.164305
2.83543
-0.161829
2.84477
-0.159912
2.85388
-0.15843
2.86278
-0.157289
2.87153
-0.156408
2.88015
-0.155714
2.88866
-0.155165
2.89707
-0.154716
2.9054
-0.154499
-0.150027
2.91387
0.403292
-4.58603
3.27863e-06
0.766017
-4.13846
1.08754
-3.67889
1.36939
-3.23001
1.61402
-2.81243
1.82484
-2.42965
2.00551
-2.08583
2.15998
-1.77635
2.29083
-1.5213
2.40153
-1.29796
2.4947
-1.11241
2.57292
-0.956882
2.63882
-0.821174
2.69447
-0.706962
2.74215
-0.602872
2.78347
-0.513629
2.81998
-0.434366
2.85193
-0.382273
2.87986
-0.347658
2.90456
-0.322277
2.92669
-0.304814
2.946
-0.274401
2.96311
-0.252644
2.97839
-0.234964
2.99214
-0.220622