/*--------------------------------*- C++ -*----------------------------------*\
  =========                 |
  \\      /  F ield         | OpenFOAM: The Open Source CFD Toolbox
   \\    /   O peration     | Website:  https://openfoam.org
    \\  /    A nd           | Version:  11
     \\/     M anipulation  |
\*---------------------------------------------------------------------------*/
FoamFile
{
    format      ascii;
    class       volVectorField;
    location    "200";
    object      U;
}
// * * * * * * * * * * * * * * * * * * * * * * * * * * * * * * * * * * * * * //

dimensions      [0 1 -1 0 0 0 0];

internalField   nonuniform List<vector> 
11040
(
(1.62179 2.09243 7.55281e-18)
(2.19228 6.41533 -1.65465e-17)
(3.78819 10.8816 -1.80029e-17)
(6.36215 14.7407 2.29634e-17)
(9.63186 17.9365 -1.18068e-17)
(13.6794 20.2058 4.31643e-18)
(18.1184 21.1089 0)
(21.2673 19.2177 -6.99126e-18)
(22.5591 16.561 0)
(23.4497 15.0944 -1.51042e-17)
(24.6093 14.8345 0)
(26.6948 15.8876 0)
(30.2454 17.0556 3.42776e-17)
(34.9037 16.8711 0)
(37.8995 13.1926 0)
(36.6844 6.79178 0)
(28.89 -0.667924 0)
(21.4079 -4.46443 5.9427e-17)
(18.8614 -4.84006 4.65357e-17)
(18.9833 -4.24443 -3.69641e-17)
(19.3657 -3.8526 3.11655e-17)
(19.3841 -3.65609 -8.97888e-19)
(19.2288 -3.53147 -2.38247e-17)
(19.0637 -3.43728 2.64966e-19)
(19.0284 -3.36833 0)
(18.8766 -3.46198 0)
(18.059 -3.64844 0)
(17.2763 -3.64561 0)
(16.784 -3.5487 2.05987e-17)
(16.4263 -3.45204 0)
(16.0656 -3.36275 0)
(15.6825 -3.2736 5.2499e-20)
(15.2871 -3.18314 1.3676e-20)
(14.8757 -3.09094 -1.39128e-20)
(14.4359 -2.99451 1.08143e-18)
(13.9578 -2.89108 -3.18071e-18)
(13.4128 -2.77481 -5.31796e-18)
(12.8054 -2.64403 -6.19342e-20)
(11.9763 -2.47254 3.70899e-20)
(11.2468 -2.25441 0)
(8.53831 -2.03214 1.92457e-17)
(2.7897 1.98498 -1.16117e-18)
(3.50721 5.9442 -6.78312e-19)
(5.26125 9.8521 -1.13121e-17)
(8.01497 13.1771 -4.59428e-18)
(11.3954 15.8449 0)
(15.5948 17.5185 1.09376e-18)
(20.0825 17.7226 4.28826e-19)
(24.0456 16.2436 2.27496e-18)
(25.7481 14.7634 -9.786e-18)
(26.3185 14.324 -9.8992e-20)
(27.0795 14.5762 -2.33802e-19)
(28.7006 15.6323 7.91997e-19)
(32.0288 15.9715 0)
(36.5441 14.2191 0)
(40.7777 9.26389 0)
(43.1244 3.60224 9.19616e-18)
(39.9562 -2.57792 1.83034e-18)
(33.2541 -4.69682 -3.19334e-17)
(27.9683 -4.33623 -2.08474e-17)
(25.2299 -3.96886 -4.7353e-19)
(23.8919 -3.86883 -1.7311e-17)
(23.0511 -3.78765 1.56305e-17)
(22.4486 -3.70257 -4.71646e-19)
(22.0039 -3.64397 -9.01116e-20)
(21.7406 -3.62374 -1.16519e-17)
(21.4976 -3.81719 3.25559e-19)
(20.9168 -4.08024 -1.01704e-17)
(20.1117 -3.96684 -1.09542e-19)
(19.4845 -3.82236 -6.17236e-18)
(18.986 -3.72543 0)
(18.5248 -3.63906 0)
(18.0793 -3.55064 -5.81373e-18)
(17.6462 -3.46143 3.65037e-20)
(17.2153 -3.37068 5.84991e-19)
(16.7721 -3.27482 -5.51956e-20)
(16.308 -3.17095 0)
(15.7988 -3.05393 3.24223e-18)
(15.2613 -2.92135 -1.54183e-20)
(14.5372 -2.74655 -6.17849e-18)
(14.0276 -2.52712 0)
(12.1228 -2.28623 -1.97434e-17)
(4.43199 1.8116 0)
(5.14841 5.41421 4.83127e-18)
(6.71596 8.92157 3.85539e-18)
(9.05411 11.9933 1.01064e-17)
(11.9666 14.49 -5.62893e-19)
(15.5024 16.2057 4.45252e-18)
(19.3026 16.8295 -5.2171e-19)
(22.621 16.1274 9.25075e-19)
(24.5725 15.1738 1.71503e-18)
(25.6806 14.7775 -7.67688e-18)
(26.8615 14.801 0)
(28.7138 15.3557 -8.61465e-19)
(31.8296 15.3648 1.61862e-17)
(35.8912 13.8267 -2.12619e-17)
(39.4468 9.55222 0)
(41.4877 4.27796 -7.31006e-18)
(40.7498 -1.85073 1.37992e-18)
(36.8787 -4.45676 2.0446e-17)
(32.6864 -4.68098 -1.74593e-17)
(29.7011 -4.53857 1.42253e-17)
(27.7402 -4.42463 1.19967e-17)
(26.3505 -4.28204 -1.0834e-17)
(25.3455 -4.14878 0)
(24.6082 -4.05934 9.45971e-18)
(24.1165 -4.01707 8.923e-18)
(23.6707 -4.16438 -5.05393e-19)
(22.9465 -4.37704 7.5254e-18)
(22.1437 -4.28822 -1.64394e-19)
(21.4852 -4.16485 4.94086e-18)
(20.9424 -4.07179 -3.91479e-18)
(20.4369 -3.97879 3.06614e-18)
(19.9459 -3.88008 2.15157e-18)
(19.4682 -3.77967 -1.34141e-18)
(18.9962 -3.67703 -4.16461e-19)
(18.5166 -3.56856 -4.59383e-19)
(18.0203 -3.45071 1.34522e-18)
(17.4838 -3.31856 -1.42992e-20)
(16.9215 -3.16426 0)
(16.1973 -2.97406 8.46239e-20)
(15.6331 -2.69648 -3.24548e-20)
(14.0393 -2.41817 6.85993e-18)
(6.22562 1.63452 0)
(6.89171 4.893 -1.22632e-18)
(8.26744 8.02719 -2.94399e-18)
(10.275 10.8083 -7.92913e-18)
(12.8113 13.0867 2.21206e-18)
(15.8505 14.729 -5.70981e-18)
(19.1349 15.5146 -2.0583e-18)
(22.0875 15.2861 1.24314e-18)
(24.1904 14.5815 4.89714e-18)
(25.5837 14.1748 1.02051e-17)
(26.9089 14.1629 -1.63317e-18)
(28.7577 14.537 -3.88833e-19)
(31.554 14.4605 2.6322e-19)
(35.1187 13.1067 1.89304e-17)
(38.3657 9.52435 -2.29912e-18)
(40.0991 4.88416 0)
(39.6594 -0.706064 -2.13695e-18)
(37.0453 -3.81134 2.47433e-18)
(33.9913 -4.51262 2.83861e-17)
(31.6749 -4.54861 -6.78226e-19)
(29.9736 -4.52467 1.05123e-17)
(28.5969 -4.44568 6.37226e-19)
(27.4902 -4.34423 0)
(26.6158 -4.2683 0)
(25.9748 -4.22771 -7.43081e-18)
(25.411 -4.34874 4.21122e-19)
(24.6363 -4.54985 -5.73662e-18)
(23.8092 -4.49957 0)
(23.1141 -4.38425 -3.66347e-18)
(22.5373 -4.28718 2.89136e-18)
(22.0046 -4.19146 -4.84365e-18)
(21.4894 -4.08971 -1.69774e-18)
(20.9891 -3.98478 1.04063e-18)
(20.4971 -3.87632 0)
(20.0011 -3.76082 0)
(19.4925 -3.63407 -4.4943e-20)
(18.9496 -3.49141 0)
(18.3851 -3.32096 0)
(17.6816 -3.11731 3.44869e-18)
(17.1101 -2.79891 -4.8914e-20)
(15.7141 -2.49089 1.82003e-20)
(8.07619 1.45919 -2.66051e-19)
(8.68636 4.37663 0)
(9.88312 7.14775 3.10322e-18)
(11.5881 9.62881 -1.08987e-18)
(13.748 11.6931 4.55168e-18)
(16.3145 13.2573 -5.53678e-18)
(19.1006 14.1656 2.48311e-18)
(21.6958 14.3321 -1.6837e-19)
(23.8198 13.983 0)
(25.4002 13.699 -4.97289e-19)
(26.8352 13.6572 5.92876e-18)
(28.6652 13.8161 4.58525e-18)
(31.1842 13.5827 -8.93382e-18)
(34.2845 12.333 0)
(37.2244 9.31896 -1.42992e-17)
(38.9903 5.24075 0)
(38.7385 0.238273 7.00051e-18)
(36.6209 -3.02566 -2.20977e-19)
(34.0336 -4.05697 -1.01319e-18)
(32.0892 -4.26163 2.55604e-18)
(30.7272 -4.36025 -9.86649e-18)
(29.6218 -4.38561 -8.97134e-18)
(28.6815 -4.35221 9.64605e-19)
(27.8852 -4.31965 0)
(27.2497 -4.30683 6.25833e-18)
(26.68 -4.41935 -6.68365e-19)
(25.9489 -4.6153 5.0781e-18)
(25.1573 -4.60639 -2.21522e-19)
(24.4634 -4.50881 4.05342e-19)
(23.8768 -4.41774 -2.65787e-18)
(23.3375 -4.32776 1.76242e-18)
(22.818 -4.22922 1.59423e-18)
(22.3142 -4.12436 -1.7728e-20)
(21.8201 -4.01376 -2.21931e-20)
(21.3246 -3.89429 2.40121e-21)
(20.8197 -3.76118 -1.66627e-20)
(20.2865 -3.60994 -5.96194e-20)
(19.7366 -3.42567 2.63223e-20)
(19.0714 -3.20845 -2.60083e-18)
(18.5233 -2.86111 0)
(17.334 -2.5254 3.73002e-18)
(9.94018 1.28739 9.85734e-19)
(10.4923 3.87118 -6.973e-19)
(11.5201 6.29548 2.12184e-18)
(12.9499 8.47959 -3.73828e-18)
(14.7555 10.3291 -2.49811e-18)
(16.8909 11.7965 9.06306e-18)
(19.2217 12.7751 2.03152e-18)
(21.4603 13.2296 4.97818e-19)
(23.5037 13.2133 0)
(25.2049 13.0732 -4.89085e-18)
(26.7366 13.0088 -4.75163e-18)
(28.5327 12.9976 -2.47976e-18)
(30.7888 12.6451 2.82243e-18)
(33.4526 11.5053 1.84496e-18)
(36.0467 9.02906 1.21063e-17)
(37.841 5.59132 -2.52286e-18)
(37.972 1.20026 -3.23032e-18)
(36.3366 -2.10752 -2.212e-17)
(34.0125 -3.49356 -9.74872e-18)
(32.1334 -3.90425 1.90169e-18)
(30.8551 -4.10406 4.48144e-18)
(29.8908 -4.2095 7.60883e-18)
(29.0953 -4.23625 -6.10215e-18)
(28.4195 -4.24643 0)
(27.8619 -4.26613 0)
(27.3618 -4.37642 0)
(26.747 -4.56489 3.96074e-18)
(26.0563 -4.59846 0)
(25.4194 -4.53223 0)
(24.8665 -4.45677 2.19017e-18)
(24.356 -4.37879 0)
(23.8627 -4.28924 -1.28464e-18)
(23.3822 -4.18965 8.16587e-19)
(22.9102 -4.08145 0)
(22.4376 -3.96214 0)
(21.9578 -3.82658 -6.41883e-19)
(21.4548 -3.6704 2.59667e-20)
(20.94 -3.47704 1.55745e-18)
(20.3349 -3.24971 2.09552e-18)
(19.8315 -2.88893 -2.58348e-18)
(18.8646 -2.53838 -3.01469e-18)
(11.7803 1.12165 0)
(12.2733 3.3856 0)
(13.1452 5.48408 1.62833e-18)
(14.3299 7.38252 1.26358e-18)
(15.8148 9.01899 0)
(17.5651 10.3719 -3.35335e-18)
(19.4881 11.3715 -4.85631e-19)
(21.3859 12.0065 -1.77307e-18)
(23.2665 12.259 6.52789e-19)
(24.9933 12.2808 -2.39468e-20)
(26.5777 12.2345 0)
(28.3195 12.1182 2.08807e-18)
(30.335 11.6909 -1.43839e-17)
(32.6101 10.6599 6.26712e-18)
(34.8666 8.65308 4.0493e-18)
(36.6117 5.84438 8.73504e-18)
(37.1358 2.12395 -6.44964e-18)
(36.0775 -1.09727 6.6892e-18)
(34.1076 -2.81215 -8.09311e-18)
(32.2772 -3.47521 0)
(30.9637 -3.79095 -6.06447e-18)
(30.0064 -3.97424 -5.64507e-18)
(29.2474 -4.05927 1.01926e-17)
(28.6161 -4.10747 0)
(28.0948 -4.15433 4.19991e-18)
(27.6371 -4.26027 3.74626e-18)
(27.1176 -4.43117 3.58034e-19)
(26.5303 -4.49611 -7.08649e-20)
(25.9684 -4.46335 -3.2701e-19)
(25.4703 -4.40633 0)
(25.0099 -4.34225 0)
(24.564 -4.26479 1.07335e-18)
(24.1275 -4.17404 1.43448e-20)
(23.6977 -4.0716 3.79591e-19)
(23.2676 -3.95562 0)
(22.8322 -3.82098 -4.05994e-19)
(22.3791 -3.66336 -3.19125e-20)
(21.919 -3.46614 -1.23006e-18)
(21.395 -3.23347 1.53582e-18)
(20.9542 -2.87597 2.1506e-18)
(20.215 -2.52308 0)
(13.5595 0.964758 0)
(13.9942 2.92858 -1.46826e-18)
(14.7259 4.72625 2.50517e-18)
(15.6975 6.3566 -6.98726e-18)
(16.9027 7.78521 3.55626e-18)
(18.3188 9.00833 2.77357e-18)
(19.8853 9.98319 0)
(21.4688 10.7068 1.19957e-18)
(23.1333 11.1461 0)
(24.7908 11.3216 3.96016e-19)
(26.3659 11.3256 -1.11829e-18)
(28.0286 11.1636 1.05546e-18)
(29.8253 10.7095 3.82684e-18)
(31.7637 9.79308 1.69633e-18)
(33.7045 8.18551 -6.39114e-19)
(35.3347 5.94493 -9.58239e-18)
(36.1489 2.91123 4.27731e-19)
(35.6733 -0.0624667 0)
(34.1788 -2.00269 3.66582e-18)
(32.5091 -2.94026 6.25622e-19)
(31.1813 -3.40712 5.1815e-18)
(30.1972 -3.6831 5.71962e-18)
(29.4271 -3.8364 1.17391e-18)
(28.7897 -3.92855 0)
(28.261 -4.00277 -3.47671e-18)
(27.8016 -4.10695 -3.10986e-18)
(27.3211 -4.25617 -2.7408e-18)
(26.7961 -4.33799 0)
(26.2841 -4.33371 1.99101e-18)
(25.8233 -4.29397 0)
(25.4 -4.24169 0)
(24.9941 -4.17482 0)
(24.5985 -4.09237 -6.0501e-19)
(24.2105 -3.99554 -6.27051e-19)
(23.8248 -3.88316 -9.4329e-21)
(23.4373 -3.75049 6.20346e-19)
(23.0393 -3.59326 0)
(22.6398 -3.39637 -8.51215e-19)
(22.2032 -3.16294 -2.50573e-18)
(21.8319 -2.8232 -1.45714e-18)
(21.2995 -2.47714 -2.50463e-20)
(15.2452 0.819166 0)
(15.6243 2.50701 1.24356e-18)
(16.2332 4.03176 -2.77558e-21)
(17.0238 5.41597 3.72543e-19)
(17.9924 6.646 -3.04135e-18)
(19.1265 7.72922 -2.37419e-18)
(20.3886 8.64177 1.66885e-18)
(21.6907 9.38167 -1.01339e-18)
(23.1155 9.92376 -5.94619e-20)
(24.6275 10.2193 6.88184e-19)
(26.1243 10.2906 0)
(27.6757 10.1349 -5.52896e-18)
(29.269 9.70176 5.11498e-18)
(30.9197 8.91033 -6.63139e-18)
(32.5755 7.63837 0)
(34.0509 5.89049 -2.44454e-18)
(35.027 3.50965 7.2197e-18)
(35.0496 0.919568 -4.91983e-18)
(34.0854 -1.0968 0)
(32.6997 -2.28459 0)
(31.4375 -2.93292 0)
(30.4517 -3.32087 -5.66069e-18)
(29.673 -3.55467 2.50248e-19)
(29.0224 -3.70171 -1.48371e-18)
(28.4746 -3.80939 2.88367e-18)
(27.9972 -3.92033 1.20371e-18)
(27.5254 -4.05427 -1.19912e-18)
(27.0325 -4.14483 1.97408e-18)
(26.5483 -4.16477 2.89931e-20)
(26.1043 -4.14251 0)
(25.6971 -4.10092 -2.36821e-19)
(25.3114 -4.04271 2.39178e-19)
(24.9392 -3.96711 5.79982e-19)
(24.5776 -3.87485 2.78611e-19)
(24.2226 -3.76526 0)
(23.8711 -3.63438 -2.25918e-19)
(23.5174 -3.47816 0)
(23.1684 -3.28449 7.29117e-19)
(22.8059 -3.05443 9.72626e-19)
(22.4948 -2.74188 2.30558e-18)
(22.1172 -2.41117 0)
(16.8111 0.686717 9.75624e-19)
(17.1387 2.12531 -2.59129e-18)
(17.6425 3.40642 -2.97788e-18)
(18.2825 4.56882 5.70063e-18)
(19.0562 5.61319 0)
(19.958 6.55269 -1.63138e-18)
(20.9657 7.37587 1.36608e-18)
(22.0224 8.07993 -1.227e-18)
(23.2088 8.65193 -1.48959e-19)
(24.5274 9.01945 -7.14624e-19)
(25.8848 9.15637 8.36245e-19)
(27.2899 9.04295 2.86637e-18)
(28.6881 8.6694 -5.32333e-18)
(30.092 8.01284 6.39589e-18)
(31.4965 7.02304 -3.43949e-18)
(32.7992 5.68801 4.87439e-18)
(33.822 3.88584 -3.70112e-18)
(34.2074 1.75984 8.01218e-18)
(33.7501 -0.167748 0)
(32.7366 -1.52251 0)
(31.6346 -2.35473 -3.20723e-18)
(30.6968 -2.87045 4.56044e-19)
(29.9329 -3.19617 3.09031e-18)
(29.2831 -3.40982 2.62469e-18)
(28.7247 -3.56054 -3.48714e-18)
(28.2333 -3.68959 -9.7724e-19)
(27.7639 -3.81978 -8.58259e-19)
(27.2927 -3.91681 -1.48981e-18)
(26.8301 -3.95755 7.77814e-19)
(26.3977 -3.9543 0)
(25.9984 -3.92535 2.02129e-19)
(25.6224 -3.87664 -3.53536e-19)
(25.2627 -3.8086 -3.23763e-19)
(24.9162 -3.72166 0)
(24.58 -3.61557 0)
(24.2521 -3.48751 0)
(23.9295 -3.33416 0)
(23.6174 -3.14708 4.36387e-19)
(23.3085 -2.92565 0)
(23.0431 -2.64455 -8.599e-19)
(22.7606 -2.33912 -2.67925e-20)
(18.2387 0.568491 0)
(18.5198 1.78529 0)
(18.9352 2.85195 -2.14813e-18)
(19.4517 3.81767 0)
(20.0679 4.69217 0)
(20.7819 5.49053 0)
(21.5809 6.20882 0)
(22.4288 6.84385 0)
(23.3945 7.39219 0)
(24.5011 7.78321 -8.89912e-19)
(25.678 7.96812 7.05805e-19)
(26.9071 7.91258 -6.30795e-19)
(28.1134 7.62156 2.01585e-18)
(29.3009 7.10361 2.81665e-18)
(30.4847 6.35136 -3.92191e-18)
(31.612 5.35327 2.88668e-18)
(32.5951 4.03119 -7.8395e-21)
(33.1949 2.38287 -5.52039e-18)
(33.1554 0.685618 2.9664e-18)
(32.545 -0.708444 -3.16699e-18)
(31.6869 -1.68287 0)
(30.8594 -2.32613 -2.53142e-18)
(30.1447 -2.74981 -4.59063e-18)
(29.5187 -3.03848 4.31076e-18)
(28.9669 -3.24166 -2.07063e-18)
(28.4743 -3.40028 1.63042e-18)
(28.0118 -3.53969 -1.61434e-18)
(27.561 -3.64596 -6.15065e-19)
(27.1213 -3.70559 -1.03518e-18)
(26.7046 -3.72257 -4.36134e-19)
(26.3156 -3.70913 0)
(25.9497 -3.67226 0)
(25.6015 -3.61387 -4.57917e-19)
(25.2681 -3.53469 -2.49985e-19)
(24.9478 -3.43488 9.74702e-20)
(24.6393 -3.31286 9.78533e-22)
(24.3417 -3.16633 0)
(24.0588 -2.99028 -3.07314e-19)
(23.789 -2.78378 -4.71973e-20)
(23.5585 -2.53543 0)
(23.3306 -2.26467 5.82949e-19)
(19.5169 0.464823 0)
(19.7567 1.4865 -1.86836e-18)
(20.0985 2.36671 3.6242e-18)
(20.515 3.16056 0)
(21.0053 3.88288 0)
(21.5692 4.54826 2.05142e-18)
(22.1994 5.15685 3.08401e-18)
(22.8733 5.70586 -1.8633e-18)
(23.6452 6.19744 0)
(24.545 6.57315 2.76302e-21)
(25.5251 6.78111 -9.93445e-19)
(26.5618 6.78054 -7.16786e-19)
(27.5785 6.57731 1.89924e-18)
(28.5712 6.19189 5.96986e-19)
(29.5591 5.6383 -2.64135e-18)
(30.5165 4.91064 1.02476e-18)
(31.4057 3.96647 -3.45737e-18)
(32.088 2.7513 3.94673e-18)
(32.3376 1.36795 1.05424e-18)
(32.095 0.068976 2.1718e-18)
(31.5292 -0.963025 0)
(30.8732 -1.70391 2.09872e-18)
(30.2504 -2.21808 -1.72487e-18)
(29.6776 -2.58257 3.68609e-18)
(29.1555 -2.84399 0)
(28.679 -3.04159 2.7908e-18)
(28.2331 -3.20202 0)
(27.8057 -3.32339 1.0092e-18)
(27.3921 -3.40197 -1.02254e-18)
(26.9972 -3.43981 7.88397e-19)
(26.6249 -3.44455 -2.92951e-19)
(26.2738 -3.42255 2.94955e-19)
(25.9409 -3.37683 2.09315e-19)
(25.6238 -3.30878 4.08147e-19)
(25.3216 -3.21904 -7.6844e-20)
(25.0339 -3.10723 -9.88029e-20)
(24.7606 -2.97237 0)
(24.5049 -2.81222 1.49703e-19)
(24.2671 -2.62672 4.01464e-20)
(24.0648 -2.41177 -4.00412e-20)
(23.8721 -2.18078 -4.73938e-19)
(20.6416 0.375429 0)
(20.8451 1.22693 -3.36981e-18)
(21.1259 1.9468 6.0865e-18)
(21.4616 2.59246 -2.29676e-18)
(21.8516 3.18123 1.79945e-18)
(22.2965 3.72586 -6.79503e-18)
(22.7918 4.22846 0)
(23.3231 4.68701 -1.12857e-18)
(23.9313 5.10623 0)
(24.6447 5.44187 0)
(25.4336 5.64927 -1.07025e-18)
(26.278 5.6894 1.46551e-18)
(27.1121 5.56443 0)
(27.9271 5.29552 -1.27412e-18)
(28.7391 4.90404 0)
(29.5359 4.38925 -4.29322e-18)
(30.3042 3.73195 4.87288e-18)
(30.9727 2.87254 6.66827e-19)
(31.3775 1.8189 -9.13754e-19)
(31.4146 0.714572 -1.85235e-18)
(31.1349 -0.272542 -1.57321e-18)
(30.689 -1.05008 0)
(30.1994 -1.62585 -2.97171e-18)
(29.7128 -2.05356 1.33445e-18)
(29.2471 -2.3705 1.22436e-18)
(28.8084 -2.61095 -1.23681e-19)
(28.3933 -2.80042 -3.09303e-18)
(27.9964 -2.94314 0)
(27.6136 -3.04252 7.64247e-19)
(27.2465 -3.10192 -6.01266e-19)
(26.8977 -3.12682 6.0544e-19)
(26.5677 -3.1226 -8.45495e-19)
(26.2551 -3.09279 3.94993e-19)
(25.9587 -3.03952 1.6176e-19)
(25.678 -2.96409 4.47205e-20)
(25.4134 -2.86716 1.00781e-19)
(25.1652 -2.74901 0)
(24.936 -2.60942 -1.79984e-19)
(24.7263 -2.44948 0)
(24.5478 -2.26837 0)
(24.3816 -2.0776 0)
(21.6152 0.299626 0)
(21.7869 1.0037 1.0264e-18)
(22.0168 1.58706 -4.41217e-18)
(22.2871 2.10666 3.29451e-18)
(22.5974 2.58048 1.5355e-18)
(22.9478 3.01898 -8.63851e-19)
(23.3357 3.42497 5.32926e-18)
(23.752 3.79726 -6.30465e-18)
(24.2257 4.14127 4.32859e-18)
(24.7805 4.42528 -2.47084e-18)
(25.3983 4.61515 6.04663e-19)
(26.0654 4.67836 -1.89004e-18)
(26.7309 4.61384 1.88773e-18)
(27.3853 4.43869 2.4346e-18)
(28.0398 4.17402 -2.21152e-18)
(28.6882 3.82176 -2.368e-19)
(29.3275 3.3762 0)
(29.9252 2.78833 -5.90056e-19)
(30.3761 2.02895 4.68888e-18)
(30.583 1.16222 -4.77959e-18)
(30.5325 0.304781 1.3387e-18)
(30.2953 -0.435108 0)
(29.9624 -1.0239 1.73828e-18)
(29.5896 -1.48569 -1.61525e-18)
(29.2063 -1.84267 8.49757e-19)
(28.8282 -2.12019 -9.62314e-19)
(28.4611 -2.3395 8.05776e-19)
(28.1059 -2.50656 6.90683e-19)
(27.7611 -2.62832 -6.26324e-19)
(27.4285 -2.70985 -9.89374e-19)
(27.1104 -2.75615 9.94378e-19)
(26.8077 -2.77194 -1.10212e-20)
(26.5208 -2.76096 3.07306e-19)
(26.2495 -2.7259 -2.13487e-19)
(25.9937 -2.66876 0)
(25.7542 -2.59103 3.26659e-20)
(25.5316 -2.49401 -8.39578e-20)
(25.3277 -2.37878 4.04396e-20)
(25.143 -2.24726 4.43963e-20)
(24.9847 -2.10002 -2.2564e-20)
(24.8398 -1.94736 -1.16651e-19)
(22.4446 0.236553 -1.57966e-18)
(22.5883 0.81372 -1.0411e-18)
(22.776 1.28202 -2.22732e-18)
(22.9931 1.69574 2.60893e-18)
(23.2395 2.07243 3.65804e-18)
(23.5151 2.42019 -1.6979e-18)
(23.818 2.74191 -2.86088e-18)
(24.1422 3.03713 0)
(24.508 3.31098 -2.06312e-18)
(24.9332 3.54155 9.70326e-19)
(25.4069 3.70467 5.50015e-19)
(25.9208 3.77573 1.06373e-18)
(26.4385 3.75212 -2.91732e-18)
(26.9516 3.64615 2.5568e-18)
(27.4675 3.47544 0)
(27.9824 3.2427 -6.17779e-19)
(28.4971 2.94885 5.23481e-18)
(28.9986 2.55756 -5.08078e-18)
(29.4246 2.03298 -1.7368e-19)
(29.7029 1.39549 6.84599e-18)
(29.7997 0.711164 -7.31884e-18)
(29.7313 0.0702099 0)
(29.5493 -0.477782 -8.46035e-19)
(29.3007 -0.933237 4.24497e-19)
(29.0166 -1.30264 0)
(28.7171 -1.60025 0)
(28.4145 -1.8406 -2.3284e-18)
(28.1137 -2.02835 1.7761e-18)
(27.8165 -2.17068 -9.21777e-19)
(27.5261 -2.27309 9.25567e-19)
(27.2457 -2.34041 3.66499e-19)
(26.977 -2.37697 8.80143e-19)
(26.7212 -2.38652 -1.28319e-18)
(26.4791 -2.37207 3.56624e-19)
(26.2514 -2.3361 -4.9424e-20)
(26.0387 -2.28071 1.30903e-19)
(25.8419 -2.20783 1.28853e-19)
(25.6622 -2.11929 -3.83319e-20)
(25.5 -2.01737 -3.02467e-20)
(25.3592 -1.90318 1.30243e-20)
(25.2318 -1.78567 4.87579e-20)
(23.1392 0.18511 0)
(23.2582 0.653902 -5.62027e-19)
(23.4106 1.02626 -7.89053e-19)
(23.5846 1.35234 6.10614e-18)
(23.78 1.6484 -4.06789e-18)
(23.9963 1.92048 -1.06046e-18)
(24.2322 2.17122 2.00919e-18)
(24.4836 2.40072 0)
(24.7642 2.6134 6.61483e-19)
(25.0868 2.79455 -6.20098e-19)
(25.4447 2.92799 7.41902e-19)
(25.8329 2.99631 -9.50362e-19)
(26.227 2.99673 1.50628e-18)
(26.6206 2.93757 3.27289e-18)
(27.0183 2.83221 -2.93436e-18)
(27.4174 2.68311 -2.87234e-18)
(27.8192 2.49401 2.84603e-18)
(28.2204 2.23936 -3.87649e-22)
(28.5854 1.8883 -4.17672e-18)
(28.867 1.44226 4.3339e-18)
(29.033 0.932964 5.02714e-18)
(29.0742 0.422271 -4.85905e-18)
(29.0114 -0.0437678 3.3189e-19)
(28.8753 -0.453674 0)
(28.6908 -0.802946 0)
(28.4773 -1.09593 0)
(28.2486 -1.34003 0)
(28.0119 -1.53718 0)
(27.7709 -1.69266 0)
(27.5305 -1.81087 0)
(27.2946 -1.89588 -3.01005e-19)
(27.066 -1.95149 9.411e-19)
(26.8467 -1.9811 -5.46773e-19)
(26.638 -1.98771 -3.06709e-19)
(26.4411 -1.97396 -6.66256e-20)
(26.257 -1.94219 0)
(26.0865 -1.89462 1.14321e-20)
(25.9304 -1.83332 7.09514e-21)
(25.7891 -1.76062 -4.05267e-20)
(25.6648 -1.67774 1.79069e-21)
(25.5525 -1.59221 3.62759e-20)
(23.7103 0.143783 -6.995e-19)
(23.8075 0.520867 -2.59953e-18)
(23.9306 0.814003 -3.49433e-19)
(24.0695 1.06873 3.17328e-18)
(24.224 1.2992 4.52664e-18)
(24.3934 1.50971 4.79069e-19)
(24.5766 1.70256 -3.686e-18)
(24.7708 1.87825 1.97063e-18)
(24.9852 2.04032 -2.31205e-18)
(25.2284 2.17912 4.61115e-19)
(25.4961 2.28423 -7.47906e-19)
(25.7856 2.34396 -5.61202e-20)
(26.0808 2.35606 7.74043e-19)
(26.3772 2.326 -1.62391e-18)
(26.6777 2.26336 2.35676e-18)
(26.9803 2.17004 -2.43932e-18)
(27.2861 2.05011 4.56683e-18)
(27.5954 1.88646 -9.20727e-18)
(27.8886 1.65602 4.93882e-18)
(28.1366 1.3542 -6.12803e-18)
(28.316 0.99426 6.22445e-18)
(28.4106 0.613901 0)
(28.4237 0.247461 0)
(28.372 -0.0914542 0)
(28.2715 -0.39382 8.8161e-20)
(28.137 -0.657727 -2.8153e-18)
(27.9808 -0.885045 2.6394e-18)
(27.8099 -1.0753 1.4557e-19)
(27.6288 -1.23123 0)
(27.4426 -1.35542 -9.72017e-19)
(27.2559 -1.45065 9.70158e-19)
(27.0718 -1.51973 9.67816e-20)
(26.8929 -1.56543 -8.47124e-20)
(26.721 -1.59032 -5.44972e-19)
(26.5576 -1.5968 6.04558e-19)
(26.4038 -1.5871 0)
(26.2605 -1.56334 -3.54189e-20)
(26.1284 -1.52752 6.2554e-21)
(26.0079 -1.48171 7.58245e-20)
(25.9001 -1.42709 -9.88529e-21)
(25.8024 -1.36969 8.89628e-21)
(24.1544 0.112675 6.14899e-19)
(24.2337 0.415895 0)
(24.3332 0.646733 -1.968e-19)
(24.4446 0.84653 1.36685e-18)
(24.5675 1.02667 1.29528e-18)
(24.7011 1.19006 -2.45614e-18)
(24.8444 1.33874 0)
(24.9957 1.47349 7.42205e-19)
(25.1609 1.59695 3.50681e-19)
(25.3457 1.70282 3.80802e-19)
(25.5474 1.78442 9.72059e-20)
(25.7643 1.83402 6.29203e-19)
(25.9858 1.85009 -6.08717e-19)
(26.209 1.83627 -1.19476e-18)
(26.4357 1.79943 -8.37608e-19)
(26.6643 1.74092 -8.32732e-19)
(26.8957 1.66429 -8.89162e-19)
(27.1308 1.55777 2.94069e-18)
(27.3587 1.40516 0)
(27.5619 1.20118 4.46438e-18)
(27.7248 0.950855 -4.25755e-18)
(27.8326 0.676333 -4.7854e-18)
(27.8818 0.40084 4.7576e-18)
(27.8804 0.135663 0)
(27.8372 -0.110123 -8.10333e-20)
(27.762 -0.332093 0)
(27.6643 -0.529068 1.43897e-19)
(27.5497 -0.699308 -2.02737e-18)
(27.422 -0.843642 1.88738e-18)
(27.2859 -0.963056 1.58713e-18)
(27.1456 -1.05904 -1.57906e-18)
(27.0045 -1.13339 -8.78503e-20)
(26.865 -1.18805 4.11157e-20)
(26.7292 -1.22499 0)
(26.5986 -1.24612 -5.58988e-20)
(26.4745 -1.25329 0)
(26.3577 -1.2483 -1.44386e-19)
(26.249 -1.23286 -2.57973e-21)
(26.1488 -1.20867 9.35344e-20)
(26.0577 -1.17675 0)
(25.9746 -1.14172 0)
(24.4849 0.0899879 -1.48594e-18)
(24.5507 0.33642 1.40895e-18)
(24.6319 0.520591 4.22693e-19)
(24.7224 0.679614 -1.24592e-18)
(24.8217 0.822447 2.16605e-19)
(24.9289 0.951066 0)
(25.0431 1.06729 -2.6611e-18)
(25.163 1.17201 1.9943e-18)
(25.2928 1.26722 4.28314e-19)
(25.4361 1.34871 -6.50586e-19)
(25.5911 1.41213 2.94307e-19)
(25.7567 1.45229 -2.89285e-19)
(25.9258 1.4682 1.17915e-18)
(26.0963 1.46239 -1.00972e-18)
(26.2695 1.43978 3.20103e-19)
(26.4442 1.40141 -3.22587e-19)
(26.6208 1.35025 4.50705e-18)
(26.8004 1.27821 -1.56661e-18)
(26.9766 1.174 -5.29359e-18)
(27.1384 1.03317 2.70587e-18)
(27.2759 0.857446 -5.95752e-20)
(27.3774 0.660071 0)
(27.4379 0.456303 -3.57558e-18)
(27.461 0.254316 3.54599e-18)
(27.4511 0.0615117 3.42398e-18)
(27.4144 -0.117435 -3.44848e-18)
(27.3573 -0.280193 1.58185e-18)
(27.2842 -0.424677 -1.58239e-18)
(27.1978 -0.550653 0)
(27.102 -0.658111 -1.289e-18)
(27.0002 -0.747605 1.28812e-18)
(26.8955 -0.82012 1.06318e-18)
(26.7901 -0.876885 -1.50602e-18)
(26.6859 -0.919248 4.72736e-19)
(26.5843 -0.948611 5.94083e-21)
(26.4866 -0.966383 3.20263e-19)
(26.3936 -0.973962 -4.59318e-19)
(26.3061 -0.972685 1.3776e-19)
(26.2245 -0.963902 4.92161e-20)
(26.1492 -0.948421 -2.86261e-20)
(26.0798 -0.929676 -2.47306e-20)
(24.7351 0.0730197 0)
(24.7902 0.275208 -4.54254e-19)
(24.8572 0.423953 -1.08454e-19)
(24.9317 0.552159 -1.69448e-18)
(25.013 0.666861 8.1421e-19)
(25.1001 0.769431 2.36338e-18)
(25.1925 0.861486 -4.35528e-18)
(25.2892 0.943926 2.01896e-18)
(25.3928 1.01828 4.76369e-19)
(25.506 1.08169 -1.67936e-18)
(25.6274 1.13127 6.26527e-19)
(25.7561 1.16349 2.26278e-19)
(25.8874 1.17775 -1.26643e-19)
(26.0197 1.17584 1.45099e-19)
(26.1538 1.16135 -1.77184e-18)
(26.2889 1.13508 2.33804e-18)
(26.425 1.09937 2.75865e-18)
(26.5632 1.04867 -6.43486e-18)
(26.6996 0.975132 5.54332e-18)
(26.827 0.875397 -2.01911e-18)
(26.9391 0.749907 -2.4514e-18)
(27.0271 0.606917 5.14325e-18)
(27.0866 0.456499 8.90451e-20)
(27.1189 0.304278 -2.53296e-18)
(27.1263 0.155768 4.64285e-20)
(27.1124 0.0149724 -7.29245e-20)
(27.0817 -0.115675 -2.4632e-20)
(27.0372 -0.234186 1.16819e-18)
(26.9807 -0.339887 -2.25746e-18)
(26.9151 -0.432292 1.09014e-18)
(26.8433 -0.511421 -8.33642e-21)
(26.7675 -0.577706 -1.31899e-20)
(26.6898 -0.631846 6.89233e-21)
(26.6116 -0.674699 -3.46447e-19)
(26.5344 -0.707221 3.49083e-19)
(26.4591 -0.730418 2.96626e-19)
(26.3867 -0.745313 -2.82873e-19)
(26.3176 -0.752905 0)
(26.2525 -0.754204 0)
(26.1916 -0.749839 1.10551e-20)
(26.135 -0.742258 4.41628e-21)
(24.928 0.0600015 0)
(24.9744 0.22719 2.15793e-18)
(25.0301 0.348598 2.53229e-18)
(25.0919 0.453094 -2.53142e-18)
(25.1592 0.546213 2.04113e-18)
(25.231 0.628926 -2.03861e-18)
(25.3066 0.702667 -7.57867e-19)
(25.3854 0.768295 1.24254e-18)
(25.4694 0.827002 -4.32677e-19)
(25.5601 0.876814 0)
(25.6566 0.915796 1.13116e-19)
(25.7582 0.94153 0)
(25.8615 0.953654 4.05007e-19)
(25.9656 0.953486 -5.02412e-19)
(26.0708 0.943678 0)
(26.1763 0.924852 -2.15382e-19)
(26.2824 0.898858 0)
(26.3897 0.861821 2.24227e-18)
(26.4956 0.808284 -2.52925e-18)
(26.5955 0.735848 0)
(26.6853 0.644525 0)
(26.7586 0.5397 -1.31399e-19)
(26.8118 0.428142 -1.82922e-18)
(26.8454 0.313668 1.84676e-18)
(26.8605 0.200225 -1.94989e-18)
(26.8593 0.0909625 2.00365e-18)
(26.8449 -0.0119893 3.32083e-20)
(26.819 -0.106998 0)
(26.7832 -0.193298 0)
(26.7394 -0.270247 -8.05385e-19)
(26.6897 -0.337609 7.53158e-19)
(26.636 -0.395497 1.22848e-20)
(26.5797 -0.444264 0)
(26.5222 -0.484425 2.57158e-20)
(26.4646 -0.516599 0)
(26.4077 -0.54147 -8.37792e-21)
(26.3523 -0.559754 -2.19519e-19)
(26.2989 -0.57217 1.44182e-19)
(26.2478 -0.57945 7.50659e-20)
(26.1996 -0.582066 -1.02449e-20)
(26.1542 -0.581691 -8.87126e-21)
(25.079 0.0498165 -5.57687e-19)
(25.1183 0.188951 -3.03398e-19)
(25.165 0.288932 -1.47866e-18)
(25.2167 0.37488 0)
(25.2729 0.451159 0)
(25.3325 0.518482 0)
(25.3951 0.578113 7.00991e-19)
(25.46 0.630847 -2.38739e-18)
(25.5287 0.677627 1.10372e-18)
(25.6023 0.717082 1.44398e-18)
(25.68 0.747906 -4.58714e-19)
(25.7612 0.768423 7.94819e-20)
(25.8436 0.778442 -7.97534e-20)
(25.9263 0.778953 6.30819e-19)
(26.0097 0.771937 -6.4108e-19)
(26.0931 0.757892 0)
(26.1765 0.738264 1.39102e-18)
(26.2604 0.710332 -1.43065e-18)
(26.3432 0.670291 -2.12809e-18)
(26.4217 0.616465 4.49744e-18)
(26.493 0.548764 5.12226e-19)
(26.5527 0.470868 -3.94811e-18)
(26.5981 0.387442 -1.6486e-19)
(26.6292 0.301087 2.86474e-18)
(26.6468 0.21459 -1.43772e-18)
(26.652 0.13032 0)
(26.6469 0.0499925 8.10817e-20)
(26.633 -0.0251364 0)
(26.6109 -0.0943702 -7.64872e-20)
(26.5822 -0.157085 0)
(26.5484 -0.212963 4.17567e-20)
(26.5108 -0.261957 6.58532e-20)
(26.4707 -0.30422 5.17434e-19)
(26.429 -0.340041 -5.46105e-19)
(26.3866 -0.369806 0)
(26.3442 -0.393964 0)
(26.3025 -0.413006 -2.28568e-20)
(26.2617 -0.42743 6.1498e-20)
(26.2224 -0.437755 -1.3976e-19)
(26.1848 -0.44433 7.59929e-20)
(26.1491 -0.448245 2.39443e-20)
(25.1988 0.0417221 -3.72261e-19)
(25.2322 0.158141 8.54601e-19)
(25.2715 0.241114 -1.31399e-18)
(25.3151 0.312358 1.66977e-19)
(25.3623 0.375329 0)
(25.4122 0.430566 1.03825e-18)
(25.4644 0.479182 -2.08531e-18)
(25.5184 0.521899 7.58981e-20)
(25.5752 0.559472 7.3978e-19)
(25.6354 0.590949 -1.35713e-18)
(25.6986 0.615445 0)
(25.7643 0.631794 3.00789e-20)
(25.8306 0.639919 0)
(25.8971 0.640578 0)
(25.9638 0.635269 0)
(26.0302 0.624398 0)
(26.0964 0.609095 1.2844e-18)
(26.1626 0.587442 -1.14075e-18)
(26.2276 0.556776 0)
(26.2895 0.515948 0)
(26.3461 0.464882 1.43887e-18)
(26.3942 0.406196 -1.89005e-18)
(26.4318 0.343189 1.99323e-18)
(26.4591 0.277654 -2.08879e-18)
(26.4764 0.211557 0)
(26.4844 0.146649 9.61173e-19)
(26.4845 0.0842518 -2.28391e-18)
(26.4777 0.0252975 1.05935e-18)
(26.4646 -0.0296429 1.30723e-20)
(26.4461 -0.0800367 0)
(26.4234 -0.125571 -5.39121e-20)
(26.3974 -0.166139 -1.00821e-20)
(26.3691 -0.201784 0)
(26.3392 -0.232661 -4.57967e-20)
(26.3084 -0.259004 0)
(26.2771 -0.281104 0)
(26.246 -0.299289 2.12828e-20)
(26.2153 -0.3139 -3.46726e-20)
(26.1854 -0.325299 6.5273e-20)
(26.1565 -0.333741 -5.14086e-21)
(26.1288 -0.339901 -4.39381e-20)
(25.2949 0.0352042 0)
(25.3233 0.13307 0)
(25.3567 0.202392 1.20964e-18)
(25.3936 0.261844 6.13743e-20)
(25.4335 0.314175 0)
(25.4755 0.359809 9.46394e-19)
(25.5194 0.399722 6.71339e-19)
(25.5646 0.434564 -1.62702e-18)
(25.6118 0.464948 3.9056e-19)
(25.6616 0.490213 -6.93448e-19)
(25.7135 0.509766 -9.88338e-20)
(25.7671 0.522795 -2.80895e-20)
(25.821 0.529296 0)
(25.8747 0.529862 -1.15636e-19)
(25.9285 0.525639 0)
(25.9819 0.516964 0)
(26.0348 0.504722 -1.01445e-18)
(26.0874 0.487559 8.44313e-19)
(26.1389 0.463603 0)
(26.1878 0.432085 0)
(26.2327 0.392966 -1.36817e-18)
(26.2713 0.348174 2.89792e-18)
(26.3022 0.300096 -2.94325e-18)
(26.3253 0.249988 1.46114e-18)
(26.341 0.199249 0)
(26.3497 0.14916 2.06702e-19)
(26.3525 0.100721 1.48939e-19)
(26.35 0.0546067 0)
(26.3425 0.0112621 -7.15668e-19)
(26.3308 -0.0288878 8.48388e-19)
(26.3157 -0.0655743 1.33308e-19)
(26.2979 -0.0986775 -4.78786e-20)
(26.2781 -0.128191 -3.79391e-20)
(26.2568 -0.154194 4.26996e-20)
(26.2345 -0.176826 0)
(26.2117 -0.196274 3.20803e-20)
(26.1886 -0.212755 0)
(26.1657 -0.226502 1.77415e-19)
(26.1432 -0.237764 -1.15784e-19)
(26.1212 -0.246727 -2.37499e-21)
(26.1 -0.253786 -2.46656e-20)
(25.3728 0.0298972 4.87844e-19)
(25.397 0.112501 2.23226e-19)
(25.4254 0.170761 -1.21681e-18)
(25.4568 0.220662 3.28013e-18)
(25.4907 0.264404 -1.5747e-18)
(25.5263 0.302331 6.18256e-19)
(25.5633 0.3353 6.38307e-19)
(25.6014 0.363888 5.4222e-19)
(25.641 0.388602 4.29802e-19)
(25.6825 0.408988 2.95352e-19)
(25.7253 0.424654 -2.011e-19)
(25.7694 0.435038 -2.51762e-20)
(25.8135 0.440184 -2.95843e-20)
(25.8574 0.440562 6.90416e-19)
(25.9011 0.437059 -5.05076e-19)
(25.9443 0.429959 9.96121e-19)
(25.9868 0.41996 -8.53931e-19)
(26.0289 0.406106 0)
(26.0699 0.387081 9.09069e-20)
(26.1087 0.362377 -9.58788e-19)
(26.1444 0.331996 9.78789e-19)
(26.1754 0.297397 -8.71211e-19)
(26.2005 0.260338 2.14275e-18)
(26.2198 0.221719 -1.07199e-18)
(26.2335 0.18254 0)
(26.2419 0.143741 -8.58953e-20)
(26.2458 0.106069 -8.57643e-20)
(26.2457 0.0700087 0)
(26.2417 0.0358949 -5.86772e-19)
(26.2345 0.00405392 5.66265e-19)
(26.2245 -0.0252984 -7.74293e-20)
(26.2124 -0.0520536 0)
(26.1986 -0.0761864 3.53818e-20)