/*--------------------------------*- C++ -*----------------------------------*\
  =========                 |
  \\      /  F ield         | OpenFOAM: The Open Source CFD Toolbox
   \\    /   O peration     | Website:  https://openfoam.org
    \\  /    A nd           | Version:  11
     \\/     M anipulation  |
\*---------------------------------------------------------------------------*/
FoamFile
{
    format      ascii;
    class       volScalarField;
    location    "100";
    object      nuTilda;
}
// * * * * * * * * * * * * * * * * * * * * * * * * * * * * * * * * * * * * * //

dimensions      [0 2 -1 0 0 0 0];

internalField   nonuniform List<scalar> 
11040
(
0.00175763
0.00179829
0.00193846
0.0025144
0.00294797
0.00326256
0.00343836
0.00335196
0.0031964
0.00309655
0.00307439
0.00318539
0.0034109
0.0036824
0.00372508
0.00349452
0.00285288
0.00240812
0.00223057
0.00216614
0.00213063
0.00209248
0.00205955
0.00203817
0.00203314
0.00201835
0.00197149
0.0019341
0.00190511
0.00188422
0.00186493
0.00184526
0.00182542
0.00180485
0.00178231
0.00175673
0.00172581
0.00168949
0.0016352
0.0015896
0.00132809
0.00812507
0.00820999
0.00814423
0.00789972
0.00762847
0.00719633
0.0065582
0.00566139
0.00494283
0.00446388
0.00416003
0.00411821
0.00413022
0.00404888
0.00371089
0.00384706
0.00403457
0.0041971
0.00428576
0.00417539
0.00392993
0.00366853
0.00345875
0.00330512
0.00318965
0.00307978
0.00303351
0.00300948
0.00297185
0.00292783
0.00288929
0.00286019
0.00283923
0.00282457
0.00281537
0.00281102
0.00281242
0.00281775
0.00283307
0.00285765
0.00273278
0.0169359
0.0171086
0.0170887
0.0167109
0.0162294
0.0154609
0.0143364
0.0126941
0.0112469
0.0101833
0.00944882
0.00923136
0.00916792
0.00896226
0.0081753
0.00707835
0.00578618
0.00561417
0.00579323
0.00602638
0.00617521
0.00619491
0.00613502
0.00605081
0.00597
0.00583422
0.0056365
0.00553801
0.00547915
0.00543595
0.0053984
0.005362
0.00532584
0.00528985
0.00525402
0.00521678
0.00517807
0.00512831
0.00507891
0.00500624
0.00461651
0.0273939
0.0276507
0.027631
0.0271327
0.0264179
0.0253012
0.0236754
0.02134
0.0191085
0.0174137
0.0162351
0.015799
0.0156215
0.015236
0.0140615
0.0123211
0.00991928
0.00837207
0.00754542
0.00753762
0.00767757
0.00775503
0.00780899
0.00784567
0.00786236
0.00781041
0.00768171
0.00760294
0.00755533
0.00752644
0.00750781
0.00749354
0.00748064
0.00746724
0.0074521
0.00743286
0.00740855
0.00736977
0.00731697
0.0072631
0.00677744
0.0389838
0.0393153
0.0392942
0.0387134
0.0378101
0.0364159
0.0343903
0.0315053
0.0285503
0.026221
0.0245811
0.0238728
0.0235256
0.0229275
0.021312
0.0189487
0.0155668
0.0129875
0.0113694
0.0103506
0.00971661
0.00939895
0.00943803
0.00952132
0.00956606
0.00954433
0.00947178
0.00944808
0.00944472
0.00944898
0.00945872
0.00947245
0.00948796
0.00950256
0.00951413
0.00951988
0.00951805
0.00950071
0.00946049
0.00943226
0.0089734
0.0511582
0.051545
0.0515218
0.0509024
0.0498809
0.0483153
0.046042
0.0427625
0.0391676
0.0363273
0.0343062
0.0333195
0.0327649
0.0319326
0.0299077
0.02691
0.0224165
0.0186748
0.0162704
0.0147159
0.0136285
0.0128538
0.0123205
0.0119441
0.0116692
0.0115049
0.0114354
0.0114317
0.0114262
0.0114249
0.0114391
0.0114664
0.0114984
0.0115293
0.0115571
0.0115796
0.0115945
0.0115944
0.0115677
0.0115564
0.0111513
0.0633471
0.0637632
0.06374
0.0631245
0.0620665
0.0604515
0.0580935
0.0546656
0.0507948
0.0475362
0.0451752
0.0439326
0.0431507
0.0420745
0.0397035
0.0359787
0.0305546
0.0257591
0.0224727
0.0202615
0.0187299
0.0176445
0.0168433
0.0162266
0.0157675
0.0153105
0.0147806
0.0143622
0.0140395
0.0138925
0.0138555
0.0138545
0.0138545
0.0138545
0.0138609
0.0138709
0.0138774
0.0138706
0.0138358
0.013819
0.0134309
0.0750092
0.0754264
0.0754066
0.0748305
0.0738128
0.0722635
0.0699553
0.0667062
0.0629281
0.0595482
0.0569324
0.0554074
0.0543782
0.0530616
0.0503309
0.0461948
0.0401771
0.034554
0.0304388
0.0275266
0.0254241
0.0239045
0.0227833
0.0219109
0.0212431
0.0205926
0.019822
0.0191641
0.018612
0.0181474
0.0177571
0.0174234
0.0171413
0.0169691
0.0168936
0.0168474
0.0167984
0.0167354
0.0166461
0.0165834
0.0161363
0.0857018
0.0860948
0.0860795
0.0855684
0.0846493
0.0832548
0.0811642
0.0782929
0.0748774
0.0716602
0.0690102
0.0672532
0.0659962
0.0644354
0.0615669
0.057332
0.0511337
0.0450105
0.0402061
0.0366178
0.0339116
0.0318983
0.0303981
0.0292244
0.0283091
0.0274405
0.0264537
0.02559
0.0248508
0.024205
0.0236304
0.0231101
0.0226293
0.0221819
0.0217658
0.021374
0.0210211
0.0207444
0.0205136
0.0203507
0.0197688
0.0951392
0.0954895
0.0954784
0.0950448
0.0942567
0.0930664
0.0912894
0.088894
0.0859991
0.0831534
0.0806762
0.0788573
0.0774197
0.0757434
0.0729419
0.0688959
0.0629492
0.0567433
0.0514588
0.0473187
0.0440628
0.0415679
0.0396743
0.0381754
0.0369851
0.035878
0.0346731
0.0336038
0.0326761
0.0318588
0.031125
0.0304542
0.0298298
0.0292375
0.0286661
0.0281051
0.0275449
0.0269821
0.0264037
0.025919
0.025035
0.103211
0.103509
0.103501
0.103146
0.102496
0.101521
0.100079
0.098168
0.0958372
0.0934619
0.0912989
0.089578
0.0881262
0.0864694
0.0838974
0.0802662
0.0749432
0.0690116
0.0636063
0.0590945
0.0554405
0.0525952
0.0503759
0.0485801
0.0471226
0.0457832
0.0443782
0.0431187
0.0420117
0.0410281
0.0401402
0.0393257
0.0385666
0.0378476
0.0371556
0.0364785
0.035804
0.0351217
0.0344037
0.0337489
0.0325487
0.109957
0.110202
0.110196
0.109912
0.109391
0.108613
0.107479
0.105999
0.104189
0.102269
0.100484
0.0989747
0.0976363
0.0961233
0.0939009
0.0908344
0.0863267
0.081118
0.076074
0.0715754
0.0677239
0.0645876
0.0620919
0.0600515
0.0583764
0.0568546
0.0553107
0.0539105
0.05266
0.0515362
0.0505144
0.0495736
0.0486959
0.0478666
0.047072
0.0462997
0.0455375
0.0447757
0.0439887
0.0432669
0.0420137
0.115511
0.115707
0.115702
0.115478
0.115066
0.114456
0.11358
0.112453
0.111074
0.109582
0.10814
0.106885
0.105732
0.104436
0.102611
0.10015
0.0965621
0.0923233
0.0880168
0.0838997
0.0801921
0.0770462
0.0744502
0.0722719
0.0704433
0.0687828
0.0671258
0.0656147
0.0642553
0.0630296
0.0619134
0.0608855
0.059927
0.059029
0.0581703
0.0573385
0.0565226
0.0557144
0.0548943
0.0541381
0.0529281
0.120047
0.120201
0.120197
0.120021
0.119698
0.119222
0.11855
0.117698
0.116647
0.115515
0.114398
0.113377
0.112426
0.111362
0.109921
0.107996
0.105281
0.10205
0.0986093
0.0951714
0.0919122
0.0890259
0.0865641
0.0844549
0.0826366
0.0809682
0.0793167
0.0777964
0.0764125
0.0751516
0.0739952
0.0729256
0.071927
0.0709859
0.0700906
0.0692303
0.0683951
0.0675768
0.0667648
0.0660125
0.0648953
0.123738
0.123859
0.123855
0.123718
0.123464
0.123094
0.122579
0.121935
0.121148
0.120295
0.119438
0.11863
0.117863
0.117011
0.115897
0.11444
0.112447
0.11007
0.107493
0.104839
0.102201
0.0997846
0.0976494
0.0957536
0.0940814
0.0925362
0.0910176
0.0896081
0.0883092
0.0871122
0.0860112
0.0849862
0.0840244
0.0831155
0.0822504
0.081421
0.0806195
0.0798399
0.0790715
0.078357
0.0773701
0.126742
0.126836
0.126833
0.126726
0.126527
0.126238
0.125844
0.125355
0.12477
0.124123
0.123464
0.122831
0.122221
0.12155
0.120701
0.119617
0.118182
0.116481
0.114628
0.112671
0.110678
0.108788
0.107074
0.105517
0.104123
0.102817
0.101532
0.100326
0.099203
0.0981574
0.0971828
0.0962706
0.0954121
0.0946055
0.0938381
0.093103
0.0923946
0.0917087
0.091038
0.0904119
0.0895976
0.129195
0.129269
0.129267
0.129183
0.129025
0.128797
0.128499
0.128123
0.127675
0.127182
0.126677
0.126184
0.125705
0.125183
0.12454
0.12374
0.122714
0.121512
0.120208
0.118817
0.117382
0.115981
0.114683
0.11349
0.112397
0.111365
0.110352
0.109401
0.108507
0.107669
0.10688
0.106138
0.105436
0.104771
0.104137
0.103532
0.102955
0.102399
0.101859
0.101354
0.100732
0.131117
0.131177
0.131176
0.131108
0.130981
0.130799
0.130562
0.130267
0.12992
0.129539
0.129146
0.128765
0.128386
0.127975
0.127481
0.12688
0.12613
0.125266
0.124336
0.123344
0.122308
0.121289
0.120333
0.119438
0.118608
0.117821
0.117055
0.116329
0.115643
0.114996
0.114385
0.113808
0.113266
0.112752
0.112263
0.111796
0.11135
0.110921
0.11051
0.110126
0.109676
0.132573
0.132621
0.132621
0.132566
0.132462
0.132312
0.13212
0.131884
0.131608
0.131305
0.130993
0.130687
0.130386
0.130056
0.129666
0.129202
0.128638
0.127996
0.127304
0.126576
0.125815
0.125064
0.124348
0.123671
0.123045
0.12245
0.121869
0.121318
0.1208
0.12031
0.119847
0.119409
0.118995
0.118603
0.118232
0.117881
0.117545
0.117224
0.116916
0.116631
0.116309
0.133702
0.133743
0.133743
0.133697
0.13361
0.133485
0.133324
0.133134
0.132908
0.132664
0.132411
0.132162
0.131911
0.131639
0.131325
0.130958
0.130521
0.130031
0.129507
0.128957
0.128384
0.127819
0.127277
0.126763
0.126281
0.125823
0.12538
0.124961
0.124564
0.124189
0.123834
0.123502
0.123188
0.122891
0.12261
0.122343
0.122091
0.121852
0.121623
0.121412
0.121182
0.134602
0.134637
0.134637
0.134598
0.134524
0.134418
0.134282
0.134122
0.133934
0.133732
0.133523
0.133315
0.133104
0.13288
0.132622
0.132325
0.131979
0.131596
0.131189
0.130765
0.130325
0.129892
0.129475
0.129076
0.1287
0.128345
0.128002
0.127677
0.127368
0.12708
0.126809
0.126552
0.126313
0.126087
0.125872
0.125668
0.125476
0.125296
0.125127
0.124971
0.124805
0.135335
0.135364
0.135365
0.135331
0.135267
0.135176
0.13506
0.134923
0.134767
0.134599
0.134423
0.134245
0.134063
0.133873
0.133657
0.133416
0.133137
0.132831
0.132509
0.132175
0.131832
0.13149
0.131164
0.130852
0.130557
0.130277
0.130009
0.129756
0.129516
0.12929
0.129077
0.128878
0.128694
0.128521
0.128355
0.128199
0.128051
0.127913
0.127783
0.127665
0.127546
0.135941
0.135967
0.135968
0.135939
0.135883
0.135804
0.135703
0.135585
0.135451
0.135307
0.135156
0.135002
0.134847
0.134684
0.134502
0.134302
0.134073
0.133825
0.133568
0.133302
0.133028
0.132757
0.132499
0.132251
0.132017
0.131795
0.131582
0.131382
0.131194
0.131016
0.130848
0.130691
0.130544
0.130409
0.130281
0.13016
0.130046
0.129939
0.129839
0.129748
0.129657
0.136451
0.136473
0.136474
0.136449
0.1364
0.13633
0.136243
0.13614
0.136024
0.135899
0.135768
0.135635
0.1355
0.13536
0.135207
0.135038
0.134848
0.134644
0.134433
0.134217
0.133996
0.13378
0.133572
0.133373
0.133185
0.133008
0.132837
0.132678
0.132528
0.132386
0.132253
0.132127
0.132011
0.131902
0.131801
0.131706
0.131618
0.131535
0.131457
0.131386
0.131317
0.136884
0.136904
0.136904
0.136882
0.136839
0.136778
0.136701
0.136611
0.136509
0.1364
0.136286
0.13617
0.136052
0.13593
0.135798
0.135655
0.135495
0.135325
0.135151
0.134974
0.134793
0.134617
0.134448
0.134287
0.134135
0.133991
0.133853
0.133725
0.133604
0.13349
0.133383
0.133282
0.133189
0.133102
0.133022
0.132947
0.132878
0.132813
0.132752
0.132696
0.132644
0.137255
0.137273
0.137274
0.137254
0.137215
0.137161
0.137094
0.137014
0.136925
0.136829
0.136729
0.136627
0.136524
0.136417
0.136303
0.136179
0.136044
0.135902
0.135757
0.13561
0.135461
0.135316
0.135177
0.135045
0.13492
0.134803
0.13469
0.134586
0.134488
0.134396
0.13431
0.134229
0.134153
0.134083
0.134018
0.133959
0.133904
0.133852
0.133805
0.133761
0.133721
0.137577
0.137593
0.137593
0.137576
0.137542
0.137493
0.137433
0.137363
0.137284
0.137199
0.137111
0.137021
0.13693
0.136836
0.136736
0.13663
0.136515
0.136396
0.136273
0.136149
0.136026
0.135906
0.13579
0.135682
0.135579
0.135482
0.135391
0.135307
0.135226
0.135151
0.13508
0.135014
0.134952
0.134895
0.134843
0.134795
0.13475
0.134709
0.134671
0.134637
0.134605
0.137858
0.137872
0.137872
0.137856
0.137826
0.137783
0.137729
0.137667
0.137597
0.137522
0.137443
0.137364
0.137283
0.1372
0.137112
0.137021
0.136922
0.13682
0.136716
0.136611
0.136507
0.136406
0.13631
0.136219
0.136134
0.136054
0.135979
0.135909
0.135843
0.135781
0.135722
0.135668
0.135618
0.135571
0.135528
0.135489
0.135453
0.13542
0.13539
0.135362
0.135337
0.138104
0.138116
0.138117
0.138103
0.138075
0.138037
0.137989
0.137933
0.137871
0.137804
0.137734
0.137663
0.137592
0.137518
0.137441
0.137361
0.137275
0.137187
0.137098
0.137009
0.136922
0.136837
0.136757
0.13668
0.13661
0.136544
0.136481
0.136422
0.136367
0.136315
0.136267
0.136222
0.13618
0.136142
0.136107
0.136074
0.136045
0.136018
0.135993
0.135971
0.135952
0.138321
0.138333
0.138333
0.13832
0.138296
0.138261
0.138218
0.138168
0.138112
0.138053
0.137991
0.137927
0.137863
0.137798
0.13773
0.137659
0.137585
0.137508
0.137432
0.137357
0.137282
0.137211
0.137143
0.137079
0.137019
0.136964
0.136911
0.136861
0.136814
0.136771
0.136731
0.136694
0.136659
0.136628
0.136599
0.136572
0.136548
0.136526
0.136506
0.136488
0.136473
0.138514
0.138524
0.138525
0.138513
0.138491
0.13846
0.138421
0.138376
0.138326
0.138273
0.138218
0.138161
0.138104
0.138045
0.137985
0.137923
0.137857
0.137792
0.137726
0.137661
0.137598
0.137537
0.137479
0.137426
0.137376
0.137329
0.137284
0.137242
0.137203
0.137166
0.137132
0.137102
0.137073
0.137047
0.137023
0.137001
0.136981
0.136962
0.136946
0.136931
0.136919
0.138686
0.138695
0.138696
0.138685
0.138665
0.138637
0.138602
0.138562
0.138517
0.138469
0.138419
0.138369
0.138317
0.138265
0.138211
0.138156
0.1381
0.138042
0.137985
0.13793
0.137875
0.137823
0.137775
0.13773
0.137688
0.137648
0.137609
0.137574
0.13754
0.13751
0.137481
0.137455
0.137431
0.137409
0.137389
0.137371
0.137354
0.137339
0.137325
0.137313
0.137303
0.13884
0.138848
0.138848
0.138839
0.138821
0.138795
0.138764
0.138727
0.138687
0.138644
0.1386
0.138554
0.138508
0.138461
0.138413
0.138365
0.138315
0.138265
0.138215
0.138168
0.138122
0.138078
0.138037
0.137998
0.137961
0.137927
0.137894
0.137863
0.137835
0.137809
0.137784
0.137762
0.137742
0.137723
0.137706
0.13769
0.137676
0.137664
0.137652
0.137642
0.137634
0.138977
0.138985
0.138986
0.138977
0.138961
0.138938
0.138909
0.138876
0.13884
0.138801
0.138761
0.13872
0.138679
0.138637
0.138594
0.138551
0.138507
0.138463
0.138421
0.138379
0.13834
0.138302
0.138266
0.138233
0.138201
0.138171
0.138142
0.138116
0.138092
0.138069
0.138049
0.13803
0.138012
0.137996
0.137982
0.137969
0.137957
0.137946
0.137937
0.137928
0.137921
0.139102
0.139109
0.139109
0.139101
0.139086
0.139066
0.13904
0.13901
0.138978
0.138943
0.138907
0.13887
0.138833
0.138795
0.138757
0.138719
0.13868
0.138641
0.138603
0.138567
0.138533
0.1385
0.138469
0.138439
0.138412
0.138386
0.138361
0.138339
0.138318
0.138299
0.138281
0.138265
0.13825
0.138236
0.138224
0.138213
0.138203
0.138194
0.138186
0.138179
0.138173
0.139214
0.13922
0.13922
0.139213
0.1392
0.139181
0.139158
0.139131
0.139102
0.139071
0.139038
0.139005
0.138972
0.138938
0.138904
0.13887
0.138835
0.138801
0.138768
0.138736
0.138706
0.138677
0.13865
0.138624
0.1386
0.138578
0.138557
0.138537
0.138519
0.138503
0.138488
0.138474
0.138461
0.138449
0.138439
0.138429
0.138421
0.138413
0.138407
0.138401
0.138396
0.139315
0.139321
0.139321
0.139315
0.139303
0.139286
0.139265
0.139241
0.139214
0.139186
0.139157
0.139127
0.139097
0.139067
0.139037
0.139006
0.138975
0.138945
0.138916
0.138888
0.138862
0.138837
0.138813
0.13879
0.138769
0.13875
0.138732
0.138715
0.1387
0.138685
0.138672
0.13866
0.138649
0.138639
0.13863
0.138622
0.138615
0.138608
0.138603
0.138598
0.138594
0.139407
0.139412
0.139413
0.139407
0.139396
0.139381
0.139362
0.13934
0.139317
0.139291
0.139265
0.139238
0.139211
0.139184
0.139157
0.13913
0.139103
0.139076
0.139051
0.139026
0.139003
0.13898
0.13896
0.13894
0.138922
0.138905
0.138889
0.138875
0.138861
0.138849
0.138837
0.138827
0.138817
0.138809
0.138801
0.138794
0.138788
0.138782
0.138777
0.138773
0.13877
0.139491
0.139495
0.139496
0.139491
0.139481
0.139467
0.13945
0.139431
0.139409
0.139387
0.139363
0.13934
0.139315
0.139291
0.139267
0.139243
0.139219
0.139195
0.139172
0.139151
0.13913
0.139111
0.139093
0.139076
0.13906
0.139045
0.139031
0.139018
0.139007
0.138996
0.138986
0.138977
0.138969
0.138961
0.138955
0.138948
0.138943
0.138938
0.138934
0.13893
0.138928
0.139567
0.139571
0.139571
0.139567
0.139558
0.139545
0.13953
0.139513
0.139494
0.139474
0.139453
0.139432
0.13941
0.139389
0.139367
0.139346
0.139324
0.139304
0.139284
0.139264
0.139246
0.139229
0.139214
0.139199
0.139185
0.139172
0.13916
0.139149
0.139138
0.139129
0.13912
0.139112
0.139105
0.139099
0.139093
0.139087
0.139083
0.139079
0.139075
0.139072
0.139069
0.139636
0.13964
0.13964
0.139636
0.139628
0.139617
0.139604
0.139588
0.139572
0.139554
0.139535
0.139516
0.139497
0.139478
0.139459
0.13944
0.139421
0.139403
0.139385
0.139368
0.139353
0.139338
0.139324
0.139311
0.139298
0.139287
0.139277
0.139267
0.139258
0.13925
0.139242
0.139235
0.139229
0.139223
0.139218
0.139213
0.139209
0.139206
0.139203
0.1392
0.139198
0.139699
0.139703
0.139703
0.139699
0.139692
0.139683
0.139671
0.139657
0.139643
0.139627
0.139611
0.139594
0.139577
0.13956
0.139543
0.139527
0.13951
0.139494
0.139479
0.139464
0.13945
0.139437
0.139425
0.139413
0.139403
0.139393
0.139384
0.139375
0.139367
0.13936
0.139353
0.139347
0.139342
0.139337
0.139332
0.139328
0.139324
0.139321
0.139318
0.139316
0.139314
0.139757
0.139761
0.139761
0.139757
0.139751
0.139743
0.139733
0.139721
0.139708
0.139695
0.13968
0.139666
0.139651
0.139636
0.139622
0.139607
0.139592
0.139578
0.139565
0.139552
0.13954
0.139528
0.139518
0.139508
0.139498
0.13949
0.139482
0.139474
0.139467
0.139461
0.139455
0.13945
0.139445
0.13944
0.139436
0.139433
0.13943
0.139427
0.139424
0.139422
0.13942
0.13981
0.139813
0.139813
0.13981
0.139805
0.139798
0.139789
0.13978
0.139769
0.139757
0.139745
0.139732
0.13972
0.139707
0.139694
0.139682
0.139669
0.139657
0.139645
0.139634
0.139624
0.139614
0.139604
0.139595
0.139587
0.13958
0.139573
0.139566
0.13956
0.139554
0.139549
0.139544
0.13954
0.139536
0.139533
0.139529
0.139527
0.139524
0.139522
0.13952
0.139518
0.139859
0.139861
0.139861
0.139859
0.139855
0.139849
0.139842
0.139834
0.139825
0.139815
0.139805
0.139795
0.139784
0.139773
0.139763
0.139752
0.139741
0.139731
0.139721
0.139711
0.139702
0.139694
0.139686
0.139678
0.139671
0.139664
0.139658
0.139652
0.139647
0.139642
0.139637
0.139633
0.139629
0.139626
0.139623
0.13962
0.139617
0.139615
0.139613
0.139611
0.139609
0.139904
0.139905
0.139905
0.139904
0.1399
0.139896
0.139891
0.139885
0.139878
0.13987
0.139862
0.139854
0.139846
0.139837
0.139828
0.13982
0.139811
0.139802
0.139794
0.139786
0.139779
0.139771
0.139764
0.139758
0.139752
0.139746
0.139741
0.139736
0.139731
0.139726
0.139722
0.139719
0.139715
0.139712
0.139709
0.139707
0.139704
0.139702
0.1397
0.139699
0.139697
0.139945
0.139946
0.139946
0.139945
0.139943
0.13994
0.139936
0.139932
0.139928
0.139923
0.139918
0.139912
0.139906
0.1399
0.139894
0.139888
0.139881
0.139875
0.139869
0.139862
0.139857
0.139851
0.139845
0.13984
0.139835
0.13983
0.139826
0.139821
0.139817
0.139814
0.13981
0.139807
0.139804
0.139801
0.139798
0.139796
0.139794
0.139792
0.13979
0.139789
0.139787
0.139983
0.139983
0.139983
0.139983
0.139982
0.139981
0.13998
0.139978
0.139977
0.139975
0.139973
0.139971
0.139968
0.139966
0.139963
0.13996
0.139957
0.139954
0.139951
0.139948
0.139945
0.139942
0.139939
0.139936
0.139933
0.13993
0.139928
0.139925
0.139922
0.13992
0.139917
0.139915
0.139912
0.13991
0.139908
0.139906
0.139905
0.139903
0.139901
0.1399
0.139899
0.00257838
0.00396093
0.00525804
0.00642284
0.00747803
0.00845157
0.009365
0.010235
0.0110747
0.0118952
0.0127058
0.0135139
0.0143267
0.0151545
0.0159956
0.0168328
0.0177558
0.0188579
0.0194266
0.0191181
0.023455
0.0373552
0.0537027
0.0664867
0.0756474
0.0825382
0.0880498
0.0926288
0.0965227
0.099883
0.102817
0.105403
0.107697
0.109748
0.111592
0.113258
0.114771
0.116151
0.117414
0.118577
0.11965
0.120643
0.121566
0.122427
0.123231
0.123986
0.124695
0.125363
0.125994
0.126592
0.127161
0.127703
0.12822
0.128715
0.129188
0.129645
0.130088
0.130515
0.13093
0.13133
0.13172
0.1321
0.132468
0.132824
0.133171
0.133509
0.133838
0.134159
0.134472
0.134778
0.135074
0.135373
0.13562
0.136062
0.00398047
0.00516689
0.00625666
0.00725529
0.00818682
0.00906978
0.0099159
0.0107351
0.0115364
0.0123277
0.0131163
0.0139082
0.014709
0.0155278
0.0163647
0.017202
0.0181082
0.0191951
0.0198913
0.0196378
0.0230607
0.0357358
0.0517165
0.0646882
0.074104
0.0811865
0.0868409
0.0915286
0.0955118
0.098947
0.101946
0.104587
0.106931
0.109025
0.110907
0.112608
0.114151
0.115557
0.116846
0.118031
0.119124
0.120136
0.121076
0.121952
0.12277
0.123538
0.12426
0.12494
0.125582
0.126191
0.12677
0.127321
0.127847
0.12835
0.128833
0.129298
0.129747
0.130181
0.130603
0.131011
0.13141
0.131799
0.132176
0.132542
0.132897
0.133243
0.13358
0.133909
0.13423
0.134544
0.134848
0.135156
0.13541
0.135866
0.00566442
0.00672208
0.00770011
0.00858597
0.00940769
0.0101931
0.0109574
0.01171
0.0124584
0.0132085
0.013966
0.0147352
0.0155203
0.0163278
0.0171603
0.0180025
0.0188902
0.0199413
0.0208155
0.0207823
0.0228418
0.0330801
0.0479992
0.0611095
0.0709468
0.0783856
0.0843217
0.0892259
0.0933891
0.0969754
0.100104
0.10286
0.105304
0.107487
0.109449
0.111221
0.112827
0.114291
0.115632
0.116863
0.117999
0.11905
0.120026
0.120935
0.121785
0.122581
0.123329
0.124034
0.1247
0.125332
0.125931
0.126502
0.127047
0.127569
0.12807
0.128552
0.129019
0.129468
0.129909
0.130337
0.130753
0.131158
0.131551
0.131933
0.132305
0.132667
0.133019
0.133364
0.1337
0.134029
0.134348
0.134672
0.134939
0.135421
0.00759705
0.00848396
0.00933478
0.0101266
0.0108723
0.0115936
0.0123041
0.0130127
0.0137265
0.0144512
0.0151914
0.0159509
0.0167327
0.0175411
0.0183799
0.0192393
0.0201275
0.0211366
0.0221482
0.022504
0.0234437
0.0303455
0.0430845
0.0558989
0.066157
0.074082
0.0804083
0.0856265
0.0900582
0.0938725
0.0971969
0.100131
0.10273
0.105051
0.107137
0.109022
0.11073
0.112285
0.113708
0.115014
0.116219
0.117334
0.118368
0.119331
0.12023
0.121072
0.121864
0.12261
0.123314
0.123982
0.124614
0.125218
0.125796
0.126347
0.126879
0.127389
0.127886
0.128367
0.128835
0.12929
0.129731
0.130161
0.130579
0.130985
0.131381
0.131766
0.132142
0.13251
0.132869
0.133221
0.133562
0.133909
0.134196
0.134715
0.00962097
0.0103727
0.0111137
0.0118224
0.0125056
0.0131812
0.0138604
0.01455
0.0152551
0.0159799
0.0167277
0.0175014
0.0183028
0.019134
0.0199981
0.0208913
0.0218084
0.0227982
0.0238699
0.0246284
0.0251709
0.0287983
0.0380452
0.0495553
0.0598884
0.068271
0.0750611
0.0806864
0.0854589
0.0895658
0.0931438
0.0963181
0.0991284
0.101636
0.103893
0.105936
0.107787
0.109471
0.111011
0.112425
0.113729
0.114935
0.116053
0.117094
0.118065
0.118975
0.11983
0.120635
0.121396
0.122117
0.122798
0.123451
0.124076
0.12467
0.125249
0.125806
0.126344
0.126865
0.12737
0.127861
0.128338
0.128802
0.129253
0.129692
0.13012
0.130537
0.130944
0.131342
0.131732
0.132113
0.132485
0.132862
0.133174
0.133741
0.0116921
0.0123633
0.0130437
0.0137106
0.0143654
0.0150227
0.0156943
0.0163864
0.0171033
0.0178484
0.0186236
0.0194302
0.0202692
0.0211407
0.022046
0.0229841
0.0239489
0.0249545
0.0260381
0.0270563
0.0277782
0.0293968
0.0346127
0.0433144
0.0527698
0.0612385
0.0683987
0.0744384
0.0795979
0.0840569
0.0879563
0.0914063
0.0944695
0.0972068
0.0996729
0.101921
0.103956
0.105808
0.107501
0.109057
0.110492
0.111819
0.113051
0.114197
0.115267
0.116269
0.117211
0.118098
0.118936
0.119729
0.120477
0.1212
0.121892
0.122551
0.123187
0.1238
0.124392
0.124964
0.125519
0.126057
0.126579
0.127087
0.127581
0.128062
0.12853
0.128987
0.129434
0.12987
0.130297
0.130717
0.131124
0.131539
0.131881
0.132508
0.0139271
0.0145788
0.0152589
0.0159413
0.0166207
0.0173065
0.0180092
0.0187347
0.0194871
0.0202695
0.0210838
0.0219312
0.0228118
0.0237255
0.0246721
0.0256512
0.0266598
0.0276973
0.0287842
0.0299007
0.0308987
0.0319477
0.0343191
0.0393261
0.0463959
0.0539527
0.0609944
0.0672329
0.0726966
0.0774881
0.0817164
0.0854736
0.0888261
0.0918342
0.0945539
0.0970266
0.0992739
0.101324
0.103202
0.10493
0.106526
0.108005
0.109379
0.110658
0.111854
0.112975
0.114029
0.115022
0.11596
0.116849
0.117691
0.118497
0.119268
0.120006
0.120715
0.121397
0.122056
0.122692
0.123307
0.123904
0.124482
0.125045
0.125591
0.126123
0.126642
0.127147
0.127641
0.128123
0.128595
0.129059
0.129509
0.129969
0.130346
0.13104
0.0166353
0.0173296
0.0180712
0.0188261
0.0195823
0.0203429
0.0211156
0.0219052
0.0227152
0.0235485
0.0244074
0.0252933
0.0262073
0.0271498
0.0281208
0.0291204
0.0301481
0.031202
0.032287
0.0334104
0.0345324
0.0356151
0.0369475
0.0393004
0.0432572
0.0485427
0.054381
0.060141
0.0655165
0.0704158
0.0748455
0.0788443
0.0824552
0.0857245
0.0886981
0.0914111
0.0938893
0.0961592
0.0982456
0.10017
0.101952
0.103607
0.105146
0.106581
0.107924
0.109184
0.110368
0.111486
0.112542
0.113544
0.114495
0.115401
0.116268
0.117098
0.117894
0.11866
0.119398
0.12011
0.120798
0.121464
0.12211
0.122737
0.123346
0.123938
0.124515
0.125077
0.125625
0.126161
0.126685
0.127199
0.127698
0.128207
0.128625
0.129394
0.020303
0.0210869
0.0219326
0.0227938
0.023653
0.0245077
0.0253632
0.0262237
0.0270924
0.0279725
0.0288667
0.0297773
0.0307061
0.0316546
0.0326239
0.0336151
0.034629
0.0356658
0.0367264
0.0378159
0.0389336
0.0400593
0.0412133
0.0425877
0.0445484
0.0473862
0.0510764
0.0553262
0.0597882
0.064203
0.0684243
0.0723853
0.0760636
0.0794634
0.082602
0.0854982
0.0881699
0.0906369
0.0929191
0.0950356
0.0970036
0.0988372
0.100549
0.102149
0.10365
0.105059
0.106387
0.107641
0.108828
0.109954
0.111024
0.112045
0.113019
0.113952
0.114847
0.115707
0.116535
0.117333
0.118104
0.118849
0.119571
0.120271
0.12095
0.12161
0.122252
0.122878
0.123487
0.124082
0.124663
0.125233
0.125786
0.126349
0.12681
0.127659
0.0255396
0.0263801
0.0273046
0.0282456
0.0291796
0.0301
0.0310092
0.0319112
0.0328094
0.0337074
0.0346085
0.0355155
0.0364311
0.0373574
0.0382964
0.0392499
0.0402196
0.041207
0.0422134
0.0432417
0.0442966
0.0453775
0.0464787
0.0476204
0.0488925
0.0504489
0.0524363
0.0549113
0.0578161
0.0610186
0.0643711
0.0677488
0.0710624
0.0742565
0.0773014
0.0801829
0.082896
0.0854429
0.0878309
0.0900697
0.0921701
0.0941419
0.0959944
0.0977366
0.0993771
0.100925
0.102387
0.103772
0.105086
0.106335
0.107524
0.108659
0.109743
0.110782
0.111779
0.112736
0.113658
0.114547
0.115404
0.116233
0.117035
0.117812
0.118566
0.119297
0.120008
0.1207
0.121374
0.122031
0.122672
0.123299
0.123908
0.124527
0.125035
0.125965
0.0328637
0.0335904
0.0344596
0.0353763
0.0362998
0.0372131
0.0381128
0.0390007
0.0398791
0.040751
0.0416194
0.042487
0.0433567
0.044231
0.045112
0.0460018
0.0469024
0.0478155
0.0487432
0.0496879
0.0506535
0.0516434
0.0526568
0.0536914
0.0547566
0.0558872
0.0571425
0.0585894
0.0602777
0.062222
0.0643995
0.0667605
0.0692431
0.0717866
0.0743398
0.0768623
0.0793245
0.0817064
0.083996
0.0861876
0.0882794
0.0902723
0.0921682
0.0939705
0.0956836
0.0973123
0.098862
0.100338
0.101745
0.103088
0.104372
0.105601
0.106778
0.107908
0.108994
0.110039
0.111046
0.112017
0.112954
0.11386
0.114737
0.115587
0.116411
0.11721
0.117987
0.118742
0.119477
0.120193
0.120892
0.121575
0.122237
0.12291
0.123462
0.124469
0.0421894
0.0427167
0.0433561
0.0441028
0.0449033
0.04572
0.0465383
0.0473527
0.0481607
0.0489621
0.0497585
0.0505524
0.051346
0.0521412
0.05294
0.053744
0.054555
0.0553749
0.0562057
0.0570498
0.0579103
0.0587899
0.0596896
0.060608
0.0615436
0.0624999
0.0634885
0.0645301
0.0656518
0.0668802
0.0682351
0.0697246
0.071344
0.0730773
0.0749013
0.0767897
0.0787158
0.080655
0.0825865
0.0844939
0.0863648
0.0881898
0.0899624
0.0916785
0.0933358
0.0949334
0.096472
0.0979528
0.0993776
0.100749
0.102069
0.103339
0.104564
0.105744
0.106883
0.107983
0.109045
0.110072
0.111065
0.112028
0.11296
0.113864
0.114742
0.115594
0.116423
0.117228
0.118013
0.118777
0.119523
0.120252
0.120959
0.121676
0.122267
0.123337
0.0529838
0.0533685
0.0538166
0.0542828
0.0547952
0.0554036
0.0560692
0.0567519
0.057438
0.0581258
0.0588155
0.059507
0.0601994
0.0608927
0.0615878
0.0622864
0.0629904
0.0637016
0.0644219
0.0651529
0.0658966
0.066655
0.0674291
0.0682185
0.0690224
0.0698401
0.0706726
0.0715233
0.0723987
0.0733081
0.0742627
0.0752734
0.0763493
0.0774958
0.0787141
0.0800008
0.0813488
0.082748
0.0841869
0.0856532
0.0871353
0.0886225
0.0901053
0.0915755
0.0930265
0.0944531
0.0958516
0.097219
0.0985535
0.0998541
0.10112
0.102352
0.103549
0.104712
0.105842
0.10694
0.108006
0.109043
0.11005
0.111028
0.11198
0.112905
0.113806
0.114682
0.115536
0.116368
0.117179
0.11797
0.118743
0.1195
0.120235
0.12098
0.121596
0.122706
0.0648331
0.0650648
0.0653505
0.0656486
0.0659578
0.0662843
0.0666326
0.0670199
0.067489
0.0680167
0.0685694
0.0691281
0.0696872
0.0702493
0.0708173
0.0713929
0.0719765
0.0725681
0.0731675
0.0737752
0.0743923
0.0750207
0.0756615
0.0763153
0.0769819
0.077661
0.0783521
0.079055
0.0797704
0.0804997
0.0812457
0.0820122
0.082804
0.0836259
0.0844823
0.0853767
0.0863112
0.0872858
0.0882991
0.089348
0.0904285
0.0915354
0.0926634
0.0938068
0.0949601
0.096118
0.0972758
0.0984293
0.0995747
0.100709
0.101829
0.102934
0.104021
0.105089
0.106137
0.107164
0.108171
0.109156
0.110121
0.111064
0.111986
0.112887
0.113768
0.114629
0.115471
0.116295
0.117101
0.11789
0.118662
0.11942
0.120158
0.120907
0.12153
0.122646
0.0772002
0.0772827
0.0774097
0.077546
0.0776896
0.0778449
0.0780164
0.0782072
0.0784203
0.0786576
0.0789193
0.0792055
0.0795395
0.0799314
0.0803594
0.080805
0.0812586
0.0817159
0.0821771
0.0826455
0.0831247
0.0836168
0.0841224
0.0846412
0.0851721
0.0857141
0.0862661
0.0868276
0.0873983
0.0879788
0.0885698
0.0891723
0.0897876
0.0904173
0.0910631
0.0917268
0.0924102
0.0931151
0.0938426
0.0945938
0.0953689
0.0961677
0.0969893
0.0978321
0.0986941
0.0995727
0.100465
0.101369
0.10228
0.103196
0.104115
0.105034
0.105951
0.106863
0.107769
0.108667
0.109556
0.110435
0.111303
0.112159
0.113002
0.113833
0.11465
0.115454
0.116244
0.117022
0.117788
0.118541
0.119281
0.120012
0.120725
0.121451
0.122057
0.123141
0.0893585
0.0893171
0.0893084
0.0893058
0.0893076
0.0893173
0.089339
0.089376
0.0894309
0.0895051
0.0895996
0.0897148
0.0898511
0.0900091
0.0901891
0.0903906
0.0906129
0.0908554
0.0911274
0.0914411
0.0917876
0.0921547
0.0925348
0.0929239
0.0933204
0.0937236
0.0941341
0.0945536
0.0949839
0.0954258
0.0958794
0.0963441
0.0968194
0.0973048
0.0978001
0.0983054
0.0988211
0.0993482
0.0998877
0.100441
0.101009
0.101593
0.102193
0.10281
0.103444
0.104093
0.104757
0.105436
0.106127
0.106829
0.107541
0.108262
0.108989
0.109721
0.110457
0.111195
0.111934
0.112672
0.113409
0.114142
0.114871
0.115594
0.116313
0.117025
0.117732
0.118433
0.119127
0.119815
0.120496