/*--------------------------------*- C++ -*----------------------------------*\
  =========                 |
  \\      /  F ield         | OpenFOAM: The Open Source CFD Toolbox
   \\    /   O peration     | Website:  https://openfoam.org
    \\  /    A nd           | Version:  11
     \\/     M anipulation  |
\*---------------------------------------------------------------------------*/
FoamFile
{
    format      ascii;
    class       volScalarField;
    location    "100";
    object      p;
}
// * * * * * * * * * * * * * * * * * * * * * * * * * * * * * * * * * * * * * //

dimensions      [0 2 -2 0 0 0 0];

internalField   nonuniform List<scalar> 
11040
(
376.342
356.363
309.052
237.187
153.155
46.2589
-61.239
-136.027
-128.042
-118.766
-147.331
-205.213
-339.214
-507.483
-653.404
-666.039
-593.028
-386.775
-254.876
-207.014
-181.041
-156.635
-136.268
-120.902
-109.722
-103.319
-90.9263
-68.2855
-54.1602
-43.7975
-33.5504
-23.4197
-13.7555
-4.41768
4.85589
14.2539
23.8862
34.141
44.8402
57.9946
68.881
369.167
349.773
307.443
244.921
169.723
77.3402
-16.9868
-86.2118
-103.847
-109.424
-141.602
-199.778
-317.818
-463.586
-590.812
-614.038
-567.397
-395.608
-265.527
-212.052
-183.577
-158.527
-137.732
-121.968
-110.327
-103.201
-91.0158
-69.3859
-55.0447
-44.4718
-34.1666
-23.9994
-14.2953
-4.92655
4.36357
13.7679
23.393
33.6333
44.2459
57.4307
67.7264
357.034
339.009
301.267
245.919
177.569
95.3771
9.50364
-59.7575
-94.2144
-109.207
-140.029
-195.05
-297.148
-424.432
-540.262
-574.72
-543.478
-402.199
-273.89
-214.6
-184.703
-159.7
-138.683
-122.583
-110.508
-102.672
-90.9025
-70.4189
-55.6645
-44.8617
-34.5573
-24.3853
-14.6571
-5.27329
4.01747
13.4136
23.0159
33.2175
43.7192
56.7972
66.4541
341.294
324.586
291.076
242.75
182.257
110.413
34.0242
-31.914
-76.2876
-100.565
-132.838
-186.141
-275
-384.85
-488.803
-532.734
-517.337
-403.747
-281.941
-217.975
-186.225
-161.119
-139.823
-123.318
-110.769
-102.122
-90.6661
-71.4552
-56.4194
-45.3852
-35.0824
-24.9075
-15.1538
-5.75641
3.52873
12.9049
22.4657
32.594
42.9418
55.7392
64.7551
322.244
306.819
277.44
235.899
183.488
121.55
54.6873
-6.08333
-55.933
-89.5472
-124.49
-175.562
-252.032
-344.868
-435.414
-484.009
-484.127
-400.068
-290.111
-222.602
-188.109
-162.693
-141.152
-124.175
-111.083
-101.526
-90.2594
-72.4966
-57.3878
-46.0665
-35.7362
-25.571
-15.8007
-6.39764
2.86684
12.1981
21.6821
31.6756
41.7941
54.0832
62.4284
300.247
286.11
260.683
225.469
180.952
128.399
70.8611
16.2478
-34.807
-75.244
-112.972
-161.657
-227.299
-304.821
-382.233
-432.561
-445.774
-390.521
-296.558
-227.702
-190.119
-164.254
-142.593
-125.136
-111.459
-100.963
-89.737
-73.4682
-58.522
-46.8994
-36.5196
-26.3887
-16.6217
-7.22741
1.99436
11.2462
20.6055
30.3853
40.1839
51.7267
59.4627
275.882
263.032
241.282
211.803
174.652
130.762
82.0948
34.1973
-14.5653
-58.4003
-98.378
-144.788
-201.236
-265.507
-330.646
-379.99
-402.92
-373.479
-299.115
-232.591
-192.291
-165.732
-144.042
-126.156
-111.879
-100.498
-89.1738
-74.2887
-59.761
-47.9053
-37.457
-27.3826
-17.6507
-8.29085
0.856853
9.98288
19.1556
28.6262
38.0021
48.5872
55.8018
249.852
238.264
219.846
195.444
164.9
128.787
88.3291
47.2903
3.16469
-40.5674
-81.3216
-125.318
-174.073
-227.299
-281.53
-327.571
-356.32
-348.159
-295.595
-235.947
-194.341
-166.96
-145.317
-127.149
-112.315
-100.158
-88.6372
-74.9043
-61.0073
-49.0623
-38.5478
-28.5512
-18.9006
-9.61645
-0.585548
8.35672
17.2681
26.3258
35.1751
44.6623
51.3938
222.924
212.552
197.082
177.07
152.253
122.925
89.8258
55.4284
17.1761
-23.5568
-63.0442
-104.123
-146.437
-190.688
-235.653
-276.984
-307.924
-315.3
-284.203
-235.754
-195.458
-167.609
-146.133
-127.928
-112.685
-99.9095
-88.1627
-75.3087
-62.1642
-50.3229
-39.7862
-29.8878
-20.369
-11.2156
-2.35664
6.33479
14.9043
23.4544
31.6879
40.0459
46.2535
195.878
186.656
173.744
157.45
137.459
113.894
87.1933
58.9413
26.9047
-8.94831
-45.186
-82.5388
-119.259
-156.26
-193.57
-229.634
-259.954
-276.842
-264.224
-229.835
-194.275
-167.107
-146.085
-128.174
-112.796
-99.6316
-87.7154
-75.5112
-63.1484
-51.6132
-41.1555
-31.3936
-22.0626
-13.1085
-4.4876
3.88456
12.0372
20.0097
27.5662
34.8671
40.4776
169.451
161.307
150.58
137.38
121.372
102.59
81.3018
58.5049
32.4057
2.25812
-29.326
-62.1221
-93.6917
-124.697
-155.685
-186.493
-214.371
-235.542
-236.565
-216.661
-189.014
-164.467
-144.575
-127.415
-112.321
-99.0982
-87.1717
-75.4875
-63.8749
-52.8186
-42.5946
-33.0497
-23.9796
-15.3077
-7.00314
0.979071
8.64829
16.0003
22.8543
29.2276
34.2186
144.302
137.16
128.282
117.625
104.853
89.9723
73.1554
55.0277
34.2264
9.77593
-16.5375
-44.245
-70.8697
-96.7001
-122.35
-148.205
-172.694
-194.379
-203.696
-196.182
-178.143
-158.373
-140.75
-125.007
-110.757
-97.9332
-86.2787
-75.128
-64.2437
-53.7987
-43.9865
-34.7836
-26.0711
-17.7789
-9.88345
-2.36827
4.75888
11.4719
17.6363
23.2228
27.6518
120.969
114.757
107.436
98.8541
88.6895
76.9503
63.759
49.5093
33.2089
13.9237
-7.19959
-29.7546
-51.6312
-72.8351
-93.8486
-115.161
-135.92
-155.871
-168.899
-170.115
-161.272
-147.713
-133.644
-120.164
-107.439
-95.591
-84.6222
-74.1817
-64.0845
-54.3721
-45.1529
-36.4524
-28.2233
-20.4225
-13.0358
-6.06405
0.474516
6.54781
12.0607
16.9853
20.9495
99.833
94.4864
88.4778
81.5865
73.5156
64.2878
53.9981
42.8966
30.2854
15.389
-1.08065
-18.853
-36.3251
-53.3639
-70.2836
-87.502
-104.561
-121.706
-135.271
-141.371
-139.619
-132.319
-122.628
-112.199
-101.685
-91.4318
-81.6506
-72.2375
-63.103
-54.2793
-45.839
-37.8225
-30.2276
-23.0427
-16.2676
-9.9127
-4.00015
1.4411
6.34886
10.7085
14.2912
81.1144
76.5707
71.67
66.1573
59.7676
52.5398
44.5521
35.9647
26.3012
14.971
2.41
-11.2248
-24.8071
-38.1725
-51.5036
-65.1042
-78.7131
-92.735
-105.043
-112.984
-115.59
-113.325
-107.947
-100.926
-93.0933
-84.9423
-76.8247
-68.8117
-60.9034
-53.1763
-45.7146
-38.5726
-31.7761
-25.3399
-19.2791
-13.6113
-8.35868
-3.54424
0.794152
4.65256
7.89842
64.9582
61.1536
57.1825
52.7863
47.7396
42.0938
35.9144
29.3041
21.9466
13.4182
3.98766
-6.26127
-16.5767
-26.816
-37.0801
-47.5696
-58.1251
-69.1446
-79.4178
-87.2705
-91.8305
-92.7858
-90.8348
-86.9488
-81.8406
-76.0079
-69.8469
-63.5251
-57.0984
-50.6866
-44.4019
-38.3176
-32.4804
-26.9246
-21.6788
-16.7673
-12.2122
-8.03241
-4.25071
-0.866414
2.04744
51.4404
48.3055
45.1151
41.6203
37.644
33.2452
28.4766
23.4041
17.8216
11.4406
4.42847
-3.17127
-10.872
-18.5674
-26.3114
-34.2278
-42.219
-50.6069
-58.713
-65.5241
-70.4256
-72.9311
-73.1685
-71.6528
-68.8577
-65.1736
-60.9554
-56.3941
-51.5621
-46.5944
-41.6185
-36.7218
-31.9641
-27.3921
-23.0434
-18.9477
-15.1284
-11.6026
-8.386
-5.47811
-2.91846
40.8489
38.2542
35.6958
32.8989
29.7362
26.2735
22.5516
18.6139
14.325
9.49217
4.22398
-1.45687
-7.23407
-13.0329
-18.8806
-24.8488
-30.8683
-37.1749
-43.3878
-48.8955
-53.3017
-56.1816
-57.4494
-57.3422
-56.1268
-54.0616
-51.4178
-48.3638
-44.962
-41.3344
-37.6029
-33.8556
-30.1554
-26.5524
-23.0879
-19.7937
-16.694
-13.8063
-11.144
-8.70952
-6.52555
32.8004
30.6319
28.5565
26.2842
23.7271
20.9536
17.9947
14.8802
11.5194
7.78197
3.74251
-0.585739
-4.99116
-9.42124
-13.8896
-18.4376
-23.0171
-27.7911
-32.5355
-36.8733
-40.5535
-43.2536
-44.8408
-45.416
-45.117
-44.0994
-42.5539
-40.6121
-38.3183
-35.7702
-33.0709
-30.2982
-27.51
-24.7538
-22.0688
-19.4863
-17.0296
-14.716
-12.5582
-10.5613
-8.74062
26.6308
24.809
23.1071
21.2378
19.143
16.8887
14.4991
11.9948
9.31435
6.36883
3.21155
-0.14843
-3.56552
-7.00217
-10.4646
-13.9762
-17.5013
-21.1526
-24.7925
-28.1802
-31.1551
-33.4834
-35.043
-35.8751
-36.0479
-35.6516
-34.8152
-33.6349
-32.1385
-30.3986
-28.4964
-26.4954
-24.4444
-22.3842
-20.3493
-18.3674
-16.4599
-14.643
-12.9285
-11.3232
-9.83832
21.8248
20.2886
18.8799
17.3267
15.5921
13.7381
11.7834
9.74306
7.57486
5.21773
2.71116
0.0621863
-2.62641
-5.32724
-8.04244
-10.785
-13.5279
-16.3487
-19.1592
-21.8014
-24.1709
-26.0998
-27.4911
-28.3615
-28.7446
-28.6925
-28.2909
-27.6083
-26.6603
-25.4994
-24.1865
-22.7706
-21.2904
-19.7789
-18.2646
-16.7707
-15.3157
-13.9138
-12.5756
-11.3086
-10.1214
18.0319
16.733
15.5583
14.2573
12.8088
11.2694
9.65391
7.97368
6.19961
4.28958
2.27359
0.157709
-1.98402
-4.13112
-6.2836
-8.44813
-10.6039
-12.8043
-14.9905
-17.0563
-18.9323
-20.498
-21.6812
-22.489
-22.9387
-23.0607
-22.9124
-22.542
-21.9583
-21.198
-20.3057
-19.318
-18.2646
-17.1709
-16.0596
-14.9493
-13.8552
-12.7891
-11.7604
-10.7759
-9.84283
15.005
13.9041
12.9182
11.821
10.6028
9.31448
7.96784
6.57179
5.10632
3.54242
1.90335
0.19463
-1.52945
-3.25326
-4.9757
-6.6997
-8.4091
-10.1406
-11.8538
-13.4756
-14.9591
-16.2174
-17.1984
-17.9058
-18.3491
-18.547
-18.5386
-18.3579
-18.0098
-17.52
-16.9208
-16.2391
-15.4968
-14.7134
-13.9063
-13.0898
-12.276
-11.4746
-10.6933
-9.93792
-9.21485
12.5661
11.6313
10.7991
9.86869
8.83804
7.75247
6.62179
5.45312
4.23291
2.94118
1.59638
0.203502
-1.19693
-2.59287
-3.98258
-5.36695
-6.73319
-8.1067
-9.45886
-10.7385
-11.9133
-12.9203
-13.7224
-14.3226
-14.7265
-14.9463
-15.0094
-14.94
-14.741
-14.4305
-14.0317
-13.5645
-13.0448
-12.4873
-11.9049
-11.3088
-10.7082
-10.1108
-9.52257
-8.94863
-8.39421
10.5847
9.78951
9.08369
8.29078
7.41425
6.49421
5.5389
4.55429
3.53134
2.45647
1.34448
0.199985
-0.946425
-2.0853
-3.21467
-4.33423
-5.43389
-6.5312
-7.60549
-8.62034
-9.55336
-10.3585
-11.0097
-11.5097
-11.8625
-12.0767
-12.1716
-12.1649
-12.0584
-11.8652
-11.6021
-11.2834
-10.921
-10.5258
-10.1073
-9.67408
-9.23304
-8.79015
-8.35014
-7.91704
-7.49538
8.96327
8.28598
7.68464
7.006
6.25712
5.47334
4.6618
3.8276
2.96497
2.06481
1.13916
0.19224
-0.752558
-1.68777
-2.61138
-3.52251
-4.41312
-5.2954
-6.15414
-6.96319
-7.70677
-8.3511
-8.87801
-9.2904
-9.59124
-9.78689
-9.8914
-9.91798
-9.86786
-9.75056
-9.57832
-9.36176
-9.10958
-8.82983
-8.52965
-8.21544
-7.8924
-7.56512
-7.23721
-6.91183
-6.59287
7.62815
7.05056
6.53614
5.95306
5.31057
4.6398
3.94701
3.23675
2.50552
1.74745
0.972389
0.184238
-0.599017
-1.37136
-2.13092
-2.87649
-3.60178
-4.31518
-5.00544
-5.65354
-6.24843
-6.76504
-7.19103
-7.52916
-7.78201
-7.95439
-8.05685
-8.0992
-8.08258
-8.01391
-7.90234
-7.7556
-7.5803
-7.3823
-7.16707
-6.93926
-6.70295
-6.46144
-6.21768
-5.97386
-5.73355
6.52267
6.02962
5.58792
5.08515
4.53185
3.95536
3.36134
2.75388
2.13116
1.48956
0.837249
0.177755
-0.474944
-1.116
-1.74371
-2.3568
-2.95031
-3.53008
-4.08769
-4.60926
-5.08699
-5.50228
-5.84683
-6.12331
-6.33397
-6.48264
-6.57731
-6.62541
-6.62799
-6.59023
-6.51896
-6.41995
-6.29815
-6.15797
-6.00353
-5.83832
-5.66544
-5.48735
-5.30633
-5.12397
-4.94334
5.6029
5.18167
4.80108
4.36613
3.88793
3.39053
2.8791
2.35746
1.82489
1.27944
0.727883
0.17344
-0.372988
-0.907449
-1.42846
-1.93479
-2.42256
-2.89584
-3.34832
-3.76984
-4.15491
-4.4897
-4.76876
-4.9946
-5.16924
-5.29574
-5.3803
-5.42859
-5.4416
-5.42324
-5.37869
-5.31225
-5.22772
-5.12841
-5.01748
-4.89756
-4.77102
-4.6397
-4.50536
-4.36913
-4.23363
4.83438
4.4743
4.14527
3.7678
3.35312
2.92235
2.48036
2.03066
1.57343
1.1078
0.639492
0.171361
-0.287982
-0.735378
-1.1695
-1.58928
-1.99167
-2.37957
-2.74821
-3.09019
-3.40165
-3.67235
-3.89877
-4.08331
-4.22764
-4.33443
-4.40836
-4.45395
-4.47202
-4.46567
-4.43872
-4.39457
-4.33599
-4.26565
-4.18585
-4.09874
-4.006
-3.90919
-3.80949
-3.70785
-3.60632
4.18987
3.88191
3.59654
3.26795
2.90716
2.53278
2.14938
1.7603
1.3663
0.967305
0.568135
0.171345
-0.216263
-0.592129
-0.955126
-1.30435
-1.63744
-1.95649
-2.25791
-2.53634
-2.7891
-3.0086
-3.19272
-3.34364
-3.46282
-3.5525
-3.61634
-3.65789
-3.6779
-3.67879
-3.66347
-3.63456
-3.59418
-3.54439
-3.48698
-3.42361
-3.35562
-3.28418
-3.21024
-3.13444
-3.0585
3.64763
3.38418
3.13588
2.84895
2.53402
2.20749
1.87373
1.53593
1.19522
0.852087
0.510619
0.173082
-0.155135
-0.471963
-0.776465
-1.06791
-1.34448
-1.60773
-1.855
-2.08241
-2.28815
-2.46664
-2.6167
-2.7403
-2.83871
-2.91381
-2.9685
-3.00557
-3.02571
-3.03082
-3.02315
-3.00471
-2.97713
-2.94201
-2.90075
-2.85466
-2.80478
-2.75206
-2.69723
-2.64076
-2.58407
3.19026
2.96481
2.74805
2.4967
2.22088
1.93507
1.64349
1.34918
1.05356
0.75744
0.464338
0.176223
-0.102604
-0.370503
-0.626693
-0.87062
-1.10091
-1.31876
-1.5222
-1.70848
-1.87643
-2.02195
-2.14453
-2.24593
-2.32725
-2.39008
-2.4367
-2.46936
-2.48864
-2.49608
-2.4934
-2.48216
-2.46363
-2.43904
-2.40949
-2.37602
-2.33946
-2.30056
-2.25993
-2.21791
-2.17569
2.80365
2.61067
2.4208
2.19986
1.95744
1.70635
1.45068
1.19336
0.935974
0.679578
0.427147
0.180432
-0.0571843
-0.284364
-0.500523
-0.705222
-0.897497
-1.07824
-1.24608
-1.39906
-1.53653
-1.65545
-1.75583
-1.83913
-1.90641
-1.95894
-1.99861
-2.02712
-2.04508
-2.05364
-2.0542
-2.04791
-2.03581
-2.01882
-1.99784
-1.97363
-1.94693
-1.91828
-1.88824
-1.85705
-1.82573
2.47636
2.31113
2.1442
1.94927
1.73539
1.51393
1.28887
1.06306
0.838184
0.615413
0.3973
0.185359
-0.0177346
-0.210933
-0.3938
-0.566032
-0.726958
-0.877305
-1.01614
-1.14211
-1.25491
-1.35234
-1.43471
-1.50331
-1.55904
-1.60299
-1.63668
-1.66147
-1.67788
-1.68683
-1.68942
-1.68653
-1.67899
-1.6675
-1.65278
-1.63542
-1.61601
-1.59501
-1.57287
-1.54981
-1.52667
2.19906
2.05753
1.91018
1.73748
1.54797
1.3518
1.15286
0.953921
0.756696
0.562449
0.373345
0.190699
0.016595
-0.148153
-0.303254
-0.448529
-0.583547
-0.708926
-0.824055
-0.92806
-1.02085
-1.1009
-1.16865
-1.22527
-1.27152
-1.30835
-1.33697
-1.35848
-1.37333
-1.38226
-1.3861
-1.38558
-1.38131
-1.37386
-1.36377
-1.35154
-1.33761
-1.32237
-1.3062
-1.28928
-1.27233
1.96407
1.84278
1.71212
1.55842
1.3897
1.21508
1.03841
0.862369
0.68869
0.518643
0.3541
0.196157
0.0464545
-0.0944301
-0.226312
-0.349151
-0.46269
-0.5675
-0.663214
-0.749302
-0.82584
-0.89177
-0.947651
-0.994471
-1.03293
-1.06381
-1.08811
-1.10674
-1.12006
-1.12868
-1.13325
-1.13431
-1.13236
-1.12784
-1.12117
-1.11273
-1.10289
-1.09194
-1.08021
-1.06786
-1.05551
1.76506
1.661
1.5446
1.40709
1.25609
1.09984
0.942114
0.785547
0.631874
0.482349
0.33858
0.201484
0.0723203
-0.0485198
-0.160966
-0.265084
-0.360789
-0.448611
-0.528388
-0.599843
-0.663177
-0.717672
-0.76394
-0.802827
-0.834948
-0.860973
-0.88173
-0.897939
-0.909952
-0.918228
-0.923289
-0.925551
-0.9254
-0.92316
-0.919171
-0.91371
-0.907079
-0.899504
-0.891268
-0.882484
-0.873715
1.59677
1.50736
1.40305
1.27931
1.14338
1.00275
0.861141
0.721129
0.584426
0.452266
0.326031
0.206491
0.0945908
-0.00942887
-0.105609
-0.194108
-0.27498
-0.348739
-0.415391
-0.474845
-0.527386
-0.572554
-0.610966
-0.643341
-0.670217
-0.692159
-0.709859
-0.723906
-0.734616
-0.742362
-0.747564
-0.750539
-0.751592
-0.750954
-0.748893
-0.745602
-0.741325
-0.736224
-0.730543
-0.724364
-0.718185
1.45494
1.37784
1.28372
1.17154
1.0483
0.920904
0.792995
0.667073
0.544799
0.427339
0.315894
0.211094
0.113654
0.0236857
-0.0589264
-0.134427
-0.202987
-0.265124
-0.320977
-0.370614
-0.414381
-0.452021
-0.484136
-0.511338
-0.534087
-0.552855
-0.568211
-0.580629
-0.590397
-0.597813
-0.603227
-0.606877
-0.609014
-0.609798
-0.609437
-0.608055
-0.605843
-0.602901
-0.599432
-0.595484
-0.591499
1.33604
1.26929
1.18366
1.08106
0.968351
0.851944
0.735513
0.621495
0.511467
0.406504
0.307582
0.215209
0.12987
0.0516119
-0.0197628
-0.0845164
-0.14292
-0.195462
-0.242405
-0.2839
-0.320366
-0.351676
-0.378439
-0.401158
-0.420257
-0.436117
-0.449224
-0.459947
-0.468553
-0.475271
-0.480405
-0.484131
-0.486672
-0.48813
-0.488685
-0.488401
-0.487433
-0.485824
-0.483734
-0.481177
-0.478513
1.23713
1.179
1.10053
1.00591
0.901871
0.794491
0.687454
0.583222
0.483344
0.388815
0.300431
0.218526
0.143386
0.0749172
0.0128844
-0.0430508
-0.0931689
-0.137992
-0.177792
-0.212859
-0.243584
-0.270025
-0.292697
-0.312112
-0.328578
-0.34248
-0.35415
-0.363948
-0.372025
-0.37863
-0.383931
-0.388141
-0.39136
-0.393751
-0.395373
-0.396357
-0.396731
-0.39661
-0.396007
-0.395019
-0.393834
1.15573
1.10439
1.03154
0.943379
0.846582
0.746826
0.647738
0.551695
0.460206
0.374221
0.294435
0.221096
0.154343
0.0939821
0.0397033
-0.00889748
-0.0521475
-0.0905549
-0.124411
-0.15404
-0.179805
-0.201842
-0.220634
-0.23665
-0.250174
-0.261574
-0.271137
-0.279188
-0.285857
-0.291365
-0.29584
-0.299461
-0.302299
-0.304491
-0.306075
-0.307162
-0.307765
-0.307978
-0.3078
-0.30731
-0.306631
1.09
1.04322
0.973652
0.889534
0.797892
0.704267
0.612083
0.523497
0.439741
0.361533
0.289354
0.223341
0.163547
0.109757
0.0616657
0.0188497
-0.0190487
-0.0525695
-0.0820466
-0.107872
-0.130398
-0.149834
-0.166567
-0.181016
-0.19338
-0.203999
-0.213066
-0.22088
-0.227524
-0.233216
-0.238027
-0.242139
-0.245577
-0.248492
-0.250881
-0.252875
-0.254454
-0.255737
-0.256692
-0.257416
-0.258
1.03882
0.995267
0.92729
0.844647
0.755043
0.664329
0.576284
0.493048
0.415695
0.344623
0.279908
0.221326
0.168608
0.12136
0.0792062
0.0417479
0.00868409
-0.0203936
-0.0457588
-0.0677304
-0.086632
-0.102671
-0.116254
-0.127738
-0.13737
-0.145447
-0.152198
-0.157876
-0.162602
-0.166554
-0.169825
-0.172558
-0.174798
-0.176656
-0.178147
-0.179364
-0.180303
-0.181046
-0.181577
-0.181975
-0.182268
1.00134
0.962105
0.897819
0.817929
0.729984
0.64015
0.55269
0.47036
0.394664
0.326259
0.265269
0.211357
0.164007
0.122505
0.086139
0.0541739
0.0260302
0.00111197
-0.0209669
-0.0405649
-0.0579512
-0.0732976
-0.0868391
-0.0987945
-0.109273
-0.11847
-0.126497
-0.13354
-0.139659
-0.145014
-0.149652
-0.153715
-0.157222
-0.160298
-0.162942
-0.165267
-0.167254
-0.169009
-0.170503
-0.171824
-0.172998
0.976656
0.940868
0.880967
0.80629
0.723714
0.638582
0.55475
0.474795
0.400321
0.332244
0.270997
0.216609
0.168906
0.127485
0.0918992
0.0615714
0.0359924
0.0145303
-0.00330571
-0.0180812
-0.0302238
-0.0401721
-0.0482985
-0.0549899
-0.0604485
-0.0649751
-0.0687032
-0.0718564
-0.0744835
-0.0767378
-0.0786344
-0.0802871
-0.0816815
-0.0829017
-0.0839187
-0.0848012
-0.0855135
-0.086119
-0.0865736
-0.0869601
-0.0871812
0.963935
0.919752
0.84834
0.764979
0.678972
0.595702
0.517908
0.44669
0.38226
0.32437
0.272565
0.226288
0.184982
0.148097
0.115148
0.0856835
0.0593386
0.0357853
0.0147644
-0.00394924
-0.0205744
-0.0352902
-0.0483229
-0.0597822
-0.0698384
-0.0785981
-0.0862532
-0.092879
-0.0986532
-0.10362
-0.107951
-0.111657
-0.114897
-0.11765
-0.120063
-0.122092
-0.123871
-0.125336
-0.126608
-0.12763
-0.128398
102.892
70.7694
53.0587
49.821
45.4049
39.6355
34.9241
31.1827
27.8674
24.8769
22.2256
19.8798
17.7774
15.8942
14.1923
12.6568
11.2532
9.97605
8.77799
7.61505
6.3862
5.31356
4.72551
4.45408
4.27113
4.08248
3.86744
3.66301
3.46768
3.29463
3.12197
2.96586
2.8071
2.64227
2.4723
2.29862
2.13037
1.97481
1.83555
1.70413
1.59129
1.48822
1.38665
1.29394
1.20021
1.1106
1.02383
0.942357
0.865654
0.805781
0.743147
0.700386
0.664592
0.632838
0.596436
0.563818
0.523584
0.484374
0.431542
0.390092
0.339892
0.295619
0.252449
0.215622
0.183855
0.15694
0.131285
0.110132
0.0914104
0.0740752
0.0513383
0.0388191
0.00295707
0.0265375
99.808
70.7956
53.1874
49.7274
45.3582
39.6115
34.9003
31.1644
27.8541
24.866
22.2167
19.8724
17.7722
15.89
14.189
12.6538
11.2511
9.97328
8.77521
7.61586
6.40257
5.34458
4.75335
4.47095
4.27639
4.07836
3.86036
3.65443
3.46041
3.28907
3.11995
2.96581
2.80889
2.6459
2.4773
2.30467
2.13695
1.98162
1.84209
1.71123
1.59782
1.4943
1.3926
1.29923
1.20508
1.115
1.02759
0.945872
0.868816
0.808
0.74565
0.702216
0.666016
0.633986
0.597891
0.564446
0.52406
0.4846
0.432024
0.390219
0.340084
0.295776
0.252627
0.215711
0.183947
0.156826
0.131258
0.110007
0.0912346
0.0737898
0.0511944
0.0386901
0.00290364
0.0265078
95.4148
70.7265
53.2468
49.4561
45.2315
39.553
34.8455
31.1218
27.824
24.8422
22.1971
19.8563
17.7602
15.8803
14.1814
12.6472
11.2465
9.96867
8.77038
7.62059
6.44087
5.41059
4.8106
4.50689
4.29355
4.08199
3.85898
3.64965
3.45578
3.28522
3.11896
2.96626
2.81049
2.64904
2.4814
2.3097
2.14235
1.98717
1.84733
1.7172
1.60333
1.4995
1.39776
1.30391
1.20938
1.11899
1.03099
0.949044
0.871794
0.809902
0.747943
0.70377
0.667128
0.634826
0.59929
0.564877
0.524484
0.484603
0.432513
0.390208
0.340229
0.295868
0.252785
0.215748
0.184041
0.156681
0.13125
0.109915
0.0910672
0.0734862
0.0510735
0.0385638
0.00288516
0.0264727
89.991
70.0655
53.1812
48.9958
44.9766
39.4319
34.7412
31.0401
27.767
24.7988
22.1623
19.8282
17.7385
15.8631
14.1681
12.6361
11.2386
9.96209
8.76347
7.62548
6.49323
5.50489
4.89719
4.5636
4.32437
4.09514
3.8639
3.64921
3.45364
3.28263
3.11813
2.96629
2.811
2.65071
2.48373
2.3128
2.14568
1.99058
1.85046
1.72118
1.60703
1.50312
1.40151
1.30739
1.21268
1.12213
1.03371
0.951662
0.874408
0.811417
0.749974
0.705089
0.667905
0.635332
0.600457
0.565065
0.524759
0.484367
0.432908
0.390011
0.340277
0.295903
0.252923
0.215742
0.184108
0.156532
0.131257
0.109848
0.0909011
0.0731732
0.0509969
0.0384273
0.00290974
0.0264089
83.6646
68.5356
52.9267
48.3087
44.5149
39.2008
34.5588
30.8944
27.6638
24.7225
22.1026
19.7806
17.7017
15.834
14.146
12.6185
11.2258
9.95259
8.75634
7.62865
6.54594
5.6114
5.00549
4.64094
4.36966
4.11796
3.87484
3.65236
3.45336
3.28065
3.11722
2.96576
2.81082
2.6513
2.48469
2.31434
2.14732
1.99214
1.85175
1.72327
1.60905
1.50516
1.40388
1.30968
1.21497
1.12446
1.03585
0.953777
0.876686
0.812725
0.75175
0.706171
0.66845
0.635546
0.601267
0.565077
0.524866
0.483894
0.433133
0.38964
0.340218
0.295819
0.253002
0.215711
0.184177
0.156418
0.131293
0.109822
0.0907572
0.0728729
0.0509374
0.0382906
0.00296288
0.026314
76.626
65.9491
52.3075
47.3363
43.759
38.7923
34.2576
30.6501
27.4854
24.5911
22.001
19.7006
17.6392
15.7847
14.1082
12.5892
11.2038
9.93644
8.74711
7.62849
6.58628
5.70605
5.11529
4.73054
4.42852
4.15142
3.89225
3.65921
3.45447
3.27855
3.11531
2.96392
2.8094
2.6505
2.48426
2.31437
2.14736
1.99197
1.85125
1.72346
1.60927
1.50554
1.40468
1.31057
1.21608
1.12578
1.03727
0.955362
0.878619
0.813919
0.753374
0.707187
0.668816
0.635499
0.601635
0.564835
0.524697
0.483154
0.433082
0.389038
0.339968
0.295618
0.253016
0.215662
0.184225
0.156363
0.13137
0.109849
0.0906566
0.0726118
0.0509289
0.0381514
0.00307421
0.0261504
69.0927
62.2106
51.0852
46.0125
42.6299
38.1204
33.7835
30.2653
27.1942
24.3742
21.8333
19.5685
17.5352
15.7021
14.0436
12.5391
11.166
9.90809
8.73171
7.62698
6.6143
5.77425
5.20024
4.81067
4.49065
4.19236
3.9158
3.6696
3.45659
3.27557
3.11143
2.95978
2.80593
2.64769
2.48194
2.31254
2.14561
1.98991
1.84884
1.72159
1.60755
1.50401
1.4037
1.30979
1.21572
1.1258
1.03773
0.956195
0.880053
0.814954
0.754892
0.708184
0.66922
0.63537
0.601662
0.564408
0.524271
0.482131
0.432684
0.388153
0.33949
0.29519
0.252887
0.21558
0.18428
0.156383
0.131523
0.109965
0.0906322
0.0724219
0.0509631
0.0380255
0.00323411
0.0258991
61.3434
57.3977
49.0323
44.245
41.063
37.0889
33.0657
29.6903
26.7465
24.0347
21.5693
19.3593
17.3691
15.5691
13.9377
12.4555
11.1015
9.85898
8.70129
7.61832
6.63386
5.82001
5.2504
4.85739
4.53326
4.22751
3.93994
3.68191
3.45926
3.27129
3.10465
2.95215
2.79913
2.64191
2.47711
2.30848
2.14185
1.98595
1.84453
1.71764
1.6038
1.50048
1.40073
1.30705
1.21351
1.1241
1.03677
0.955955
0.880746
0.815762
0.756351
0.709337
0.669804
0.635304
0.601452
0.563786
0.523521
0.480781
0.431824
0.386865
0.338622
0.294475
0.252555
0.215412
0.184288
0.156475
0.13176
0.110195
0.0907315
0.0723513
0.0510966
0.037929
0.00349175
0.0254986
53.6456
51.7411
46.0035
41.9122
39.007
35.6081
32.0186
28.8651
26.0919
23.5286
21.1731
19.0437
17.1167
15.3659
13.7739
12.3244
10.9984
9.77969
8.6476
7.59429
6.64257
5.85182
5.27767
4.87106
4.54097
4.236
3.94849
3.68655
3.45774
3.26342
3.09353
2.93965
2.78752
2.63171
2.46851
2.30122
2.13546
1.97967
1.83815
1.71159
1.59804
1.49497
1.39577
1.30225
1.20922
1.12028
1.03388
0.954059
0.88016
0.815877
0.757541
0.710605
0.670778
0.635642
0.601374
0.563241
0.522641
0.47918
0.430496
0.385092
0.337265
0.293257
0.251828
0.215018
0.184183
0.156584
0.13209
0.110571
0.0909936
0.0724544
0.0513608
0.037913
0.00387427
0.0249392
46.1411
45.5262
41.9899
38.8925
36.4116
33.6063
30.5495
27.7165
25.1718
22.804
20.6011
18.5858
16.7483
15.0684
13.5328
12.1294
10.8429
9.65856
8.56089
7.54472
6.63082
5.86601
5.28941
4.8659
4.5235
4.21572
3.93032
3.67044
3.44149
3.24496
3.07358
2.91916
2.76853
2.615
2.45444
2.28947
2.12548
1.97054
1.82942
1.70337
1.59033
1.4876
1.38895
1.29546
1.20275
1.11407
1.02856
0.949857
0.877627
0.814729
0.75805
0.711811
0.672159
0.636559
0.60176
0.563049
0.52183
0.477475
0.428702
0.382765
0.335206
0.291393
0.250524
0.214207
0.183793
0.156602
0.132443
0.111078
0.0914641
0.0727945
0.051841
0.0380365
0.00447225
0.024173
38.8104
38.9851
37.1137
35.1119
33.2195
31.0298
28.5708
26.1603
23.9173
21.7999
19.7998
17.9408
16.2264
14.6455
13.1893
11.8505
10.6185
9.48185
8.42978
7.4597
6.58925
5.85397
5.28054
4.84414
4.48964
4.1768
3.89135
3.63308
3.40536
3.20902
3.03828
2.88514
2.73753
2.58783
2.43157
2.27054
2.10984
1.95701
1.81729
1.69238
1.58036
1.47837
1.38049
1.28702
1.19441
1.10558
1.02059
0.942823
0.872335
0.81131
0.757
0.712307
0.673627
0.638144
0.602975
0.563693
0.521626
0.476088
0.426796
0.380006
0.332477
0.288677
0.248377
0.212686
0.182875
0.156304
0.132684
0.111643
0.0921149
0.073405
0.0525899
0.038391
0.00536332
0.0232595
31.5741
32.2655
31.5765
30.5887
29.3907
27.8452
26.0177
24.1134
22.2523
20.4474
18.706
17.0535
15.504
14.0571
12.7101
11.4603
10.3028
9.23091
8.23842
7.32526
6.50557
5.80531
5.24226
4.79957
4.4369
4.12079
3.83613
3.58
3.35378
3.15778
2.98753
2.83568
2.69141
2.54659
2.39624
2.24112
2.08566
1.93682
1.8
1.67734
1.56726
1.46674
1.3702
1.27707
1.18452
1.09522
1.01018
0.932828
0.863789
0.804835
0.753369
0.711119
0.67441
0.639953
0.60501
0.565455
0.522462
0.475522
0.425197
0.377127
0.329154
0.285103
0.245226
0.210185
0.181104
0.155396
0.132558
0.11209
0.0928754
0.0742736
0.0536669
0.03905
0.0066558
0.0222208
24.4088
25.4724
25.6048
25.445
24.9462
24.0553
22.8657
21.5179
20.1087
18.6789
17.2539
15.8625
14.5263
13.2552
12.0532
10.9235
9.86641
8.88091
7.96553
7.12278
6.36378
5.7067
5.16333
4.7232
4.3584
4.04266
3.76141
3.50967
3.28694
3.09268
2.92335
2.77257
2.63112
2.49104
2.34717
2.1992
2.05071
1.9077
1.77548
1.65645
1.54945
1.45147
1.35718
1.26519
1.17315
1.08338
0.997865
0.920277
0.852015
0.794772
0.746272
0.707092
0.673335
0.641083
0.607356
0.56825
0.524681
0.476351
0.424629
0.374751
0.325745
0.280907
0.241083
0.206539
0.178213
0.15353
0.131737
0.112134
0.0935157
0.075278
0.0550224
0.0400625
0.00841799
0.0212233
17.3888
18.7246
19.4254
19.8853
20.0005
19.7269
19.1487
18.3666
17.4506
16.4463
15.389
14.3109
13.2382
12.1881
11.1721
10.1984
9.27326
8.40061
7.58395
6.8282
6.14273
5.54015
5.02868
4.60259
4.24434
3.93476
3.66111
3.41732
3.20116
3.0112
2.84438
2.69543
2.55686
2.42156
2.28455
2.14471
2.00456
1.86902
1.74292
1.62877
1.52586
1.43129
1.34019
1.25034
1.15965
1.07001
0.98407
0.905825
0.837637
0.781407
0.735426
0.69941
0.669235
0.640243
0.608947
0.571397
0.528021
0.478737
0.42555
0.373517
0.322838
0.276584
0.236243
0.201795
0.174054
0.150422
0.129857
0.111421
0.0937594
0.0762074
0.0565516
0.0413957
0.0106702
0.02034
10.6841
12.1963
13.2774
14.1682
14.7632
15.0156
14.9821
14.7301
14.3065
13.7485
13.0906
12.3649
11.5984
10.8123
10.0231
9.24363
8.4846
7.75487
7.06177
6.41294
5.81696
5.28366
4.8191
4.42175
4.08171
3.78665
3.52667
3.29565
3.09023
2.90815
2.74654
2.60125
2.46655
2.33671
2.2073
2.07674
1.94648
1.82016
1.70179
1.59374
1.49573
1.40525
1.31795
1.23115
1.14285
1.05439
0.968699
0.89001
0.821515
0.765595
0.721366
0.688053
0.661459
0.63634
0.60848
0.573683
0.531661
0.482331
0.428106
0.373913
0.321151
0.272883
0.231312
0.196368
0.168796
0.146016
0.126703
0.109626
0.0932285
0.0767384
0.0579964
0.042916
0.0133336
0.0197408
4.53563
6.12291
7.4254
8.58167
9.5065
10.1575
10.5637
10.764
10.7857
10.6536
10.3944
10.0346
9.59831
9.10643
8.57698
8.02541
7.46541
6.90861
6.36562
5.84576
5.35841
4.91187
4.51236
4.16106
3.85411
3.58495
3.34702
3.1352
2.94588
2.7763
2.62382
2.48529
2.35672
2.23396
2.11355
1.9938
1.87519
1.76
1.65114
1.55057
1.45829
1.37236
1.28922
1.20613
1.12117
1.0352
0.951022
0.872808
0.804323
0.748432
0.705172
0.673736
0.650123
0.628787
0.604871
0.573769
0.534275
0.486112
0.431716
0.375911
0.321017
0.270413
0.226961
0.190849
0.162836
0.140486
0.122226
0.106542
0.091643
0.0765441
0.0590785
0.0443991
0.016232
0.0194046
-0.739217
0.816313
2.19432
3.46548
4.56891
5.47154
6.18362
6.72231
7.09977
7.32878
7.42553
7.40803
7.29409
7.10088
6.84452
6.54003
6.20122
5.84081
5.47038
5.10056
4.74106
4.40044
4.08535
3.79935
3.54283
3.31364
3.10856
2.92426
2.75776
2.60649
2.46835
2.34116
2.2225
2.10981
2.00076
1.89385
1.78884
1.68673
1.58921
1.49758
1.41201
1.33115
1.25245
1.17353
1.09281
1.0107
0.929674
0.85351
0.786123
0.730665
0.688035
0.657668
0.63607
0.61781
0.597631
0.570583
0.534534
0.488753
0.435369
0.378898
0.322383
0.269535
0.223848
0.185985
0.156866
0.134345
0.116714
0.102218
0.088841
0.0753543
0.0594643
0.0455589
0.0191146
0.019356
-4.67088
-3.24058
-1.91272
-0.65856
0.482115
1.48623
2.35383
3.08897
3.69397
4.17284
4.53274
4.78329
4.93516
4.99988
4.98922
4.91522
4.78954
4.62367
4.4285
4.2144
3.99097
3.76679
3.54898
3.34261
3.15055
2.97367
2.81147
2.66261
2.5254
2.39836
2.28012
2.16958
2.06554
1.96674
1.87186
1.77975
1.68974
1.60188
1.51678
1.43509
1.35695
1.28165
1.20765
1.13331
1.05751
0.98051
0.904274
0.831982
0.767247
0.713198
0.671294
0.641401
0.620706
0.604328
0.587001
0.563652
0.531363
0.488846
0.437677
0.381793
0.32463
0.270103
0.222283
0.182358
0.151592
0.128246
0.110656
0.0969398
0.084902
0.0730646
0.058933
0.0461188
0.0216704
0.0194019
-7.1995
-5.94977
-4.75288
-3.6025
-2.52346
-1.53104
-0.629651
0.178256
0.889818
1.50387
2.02151
2.44603
2.7821
3.03586
3.2143
3.32548
3.37778
3.3801
3.34134
3.27039
3.17577
3.06536
2.94611
2.82357
2.70184
2.58353
2.47002
2.36173
2.25864
2.16039
2.06679
1.97751
1.89236
1.81095
1.73262
1.65658
1.58203
1.5085
1.43589
1.36438
1.2941
1.22487
1.15604
1.08681
1.01659
0.945672
0.875519
0.808628
0.747996
0.696464
0.655722
0.626033
0.605355
0.589611
0.573917
0.55337
0.524574
0.485704
0.437615
0.383521
0.326881
0.271651
0.222207
0.180316
0.147609
0.122906
0.104735
0.0912329
0.0801351
0.0697549
0.0573884
0.0458795
0.0236485
0.0194446
-8.5866
-7.53978
-6.51437
-5.51398
-4.55367
-3.64335
-2.78874
-1.99478
-1.26643
-0.607375
-0.0199329
0.495238
0.938621
1.3122
1.61893
1.86309
2.0496
2.18435
2.27356
2.32389