/*--------------------------------*- C++ -*----------------------------------*\
  =========                 |
  \\      /  F ield         | OpenFOAM: The Open Source CFD Toolbox
   \\    /   O peration     | Website:  https://openfoam.org
    \\  /    A nd           | Version:  11
     \\/     M anipulation  |
\*---------------------------------------------------------------------------*/
FoamFile
{
    format      ascii;
    class       surfaceScalarField;
    location    "100";
    object      phi;
}
// * * * * * * * * * * * * * * * * * * * * * * * * * * * * * * * * * * * * * //

dimensions      [0 3 -1 0 0 0 0];

internalField   nonuniform List<scalar> 
21876
(
0.00518755
-0.00520553
1.79764e-05
0.0107657
-0.00557818
0.0164319
-0.00566617
0.0213974
-0.00496551
0.0264874
-0.00508998
0.0306286
-0.00414125
0.0328281
-0.00219947
0.0314875
0.00134056
0.0308425
0.000644997
0.0313046
-0.000462018
0.0326385
-0.00133389
0.0362918
-0.00365339
0.0400544
-0.00376254
0.0424389
-0.00238447
0.0396906
0.0027483
0.0322581
0.00743245
0.0212195
0.0110386
0.0170918
0.00412769
0.0169954
9.64548e-05
0.0175267
-0.000531245
0.0180767
-0.000550013
0.0184393
-0.000362589
0.0186755
-0.000236156
0.0189173
-0.000241788
0.0192218
-0.000304368
0.0189303
0.000291584
0.018154
0.000776361
0.0179435
0.000210541
0.0177533
0.000190266
0.017592
0.000161388
0.0174279
0.000164164
0.0172368
0.00019118
0.0170113
0.000225643
0.0167435
0.000267898
0.0164219
0.000321626
0.0160275
0.000394549
0.0155303
0.000497265
0.0148792
0.000651247
0.0140172
0.00086206
0.0125152
0.00150208
0.00264605
0.00986923
0.00599974
-0.0112311
2.58167e-05
0.0123463
-0.0119248
0.0187432
-0.012063
0.0245606
-0.010783
0.0302166
-0.010746
0.0348428
-0.00876743
0.0378913
-0.00524791
0.0384385
0.000793382
0.0389174
0.000166049
0.0399948
-0.00153941
0.041738
-0.00307705
0.0453206
-0.00723595
0.0488727
-0.00731469
0.0513131
-0.00482487
0.0508526
0.00320886
0.0472907
0.0109943
0.0389915
0.0193379
0.03303
0.0100892
0.029689
0.00343745
0.0277914
0.00136643
0.0269162
0.000325213
0.0265824
-2.87573e-05
0.026454
-0.000107756
0.0264685
-0.000256224
0.0266211
-0.000456836
0.0264061
0.000506636
0.0257341
0.00144843
0.0253567
0.000588109
0.0250022
0.000544944
0.0246976
0.000466151
0.0244273
0.000434631
0.0241631
0.000455572
0.0238865
0.000502366
0.0235824
0.000572161
0.0232365
0.000667739
0.022829
0.000802272
0.0223401
0.000986316
0.021708
0.00128349
0.0209622
0.00160806
0.0197462
0.0027182
0.00531707
0.0170754
0.00700822
-0.0182707
3.13737e-05
0.0142998
-0.0192163
0.0216039
-0.0193672
0.0283417
-0.0175207
0.0347367
-0.0171409
0.0401909
-0.0142217
0.0441184
-0.00917533
0.0456838
-0.000772022
0.0468141
-0.00096431
0.0483782
-0.0031035
0.0505896
-0.00528848
0.0543451
-0.0109914
0.0582095
-0.0111791
0.0608273
-0.00744269
0.0602594
0.00377682
0.0574013
0.0138524
0.0511148
0.0256244
0.0458673
0.0153367
0.0422416
0.00706315
0.0394875
0.00412049
0.0376872
0.00212558
0.0366825
0.000975918
0.0360949
0.00047993
0.0357928
4.59037e-05
0.0356938
-0.000357846
0.0352478
0.000952626
0.0344067
0.00228963
0.0339115
0.00108333
0.0334734
0.000983058
0.0330794
0.000860133
0.0327181
0.000796013
0.0323623
0.000811349
0.0319939
0.000870798
0.0315969
0.000969185
0.0311545
0.00111023
0.0306429
0.00131386
0.0300382
0.00159109
0.0292794
0.0020423
0.028362
0.00252541
0.0270717
0.00400849
0.00783167
0.0245572
0.00823109
-0.0265385
3.67728e-05
0.0166572
-0.0276424
0.0249998
-0.0277098
0.0327354
-0.0252563
0.0399933
-0.0243988
0.0463189
-0.0205474
0.0512165
-0.0140729
0.0538298
-0.00338533
0.0556547
-0.00278922
0.0577505
-0.00519927
0.060548
-0.00808601
0.0646263
-0.0150697
0.0688008
-0.0153536
0.0718299
-0.0104718
0.0715497
0.00405706
0.0684643
0.0169378
0.0623207
0.031768
0.0572009
0.0204565
0.0540709
0.0101931
0.0516203
0.0065711
0.0497037
0.00404218
0.0484209
0.00225883
0.0475339
0.00136698
0.0469546
0.000625208
0.0466207
-2.38881e-05
0.0459878
0.00158559
0.0449623
0.00331522
0.04429
0.00175581
0.0437414
0.00153173
0.0432485
0.00135318
0.0427954
0.00124929
0.0423532
0.0012537
0.0418996
0.00132457
0.0414164
0.00145255
0.0408847
0.0016421
0.0402786
0.00192017
0.0395695
0.00230027
0.0386996
0.00291238
0.0376391
0.00358602
0.0362491
0.00539859
0.0102983
0.0337826
0.00968842
-0.0362692
4.22877e-05
0.0194377
-0.0373917
0.0289665
-0.0372386
0.0378119
-0.0341018
0.0460689
-0.0326557
0.0533857
-0.0278643
0.0593869
-0.020074
0.0632823
-0.00728072
0.0662045
-0.0057114
0.0689974
-0.00799217
0.0723786
-0.0114673
0.0767319
-0.019423
0.0811219
-0.0197436
0.0845121
-0.0138619
0.0847964
0.00377274
0.0818421
0.0198921
0.0754796
0.0381305
0.0696616
0.0262745
0.0663179
0.0135369
0.0640986
0.00879042
0.0623978
0.00574305
0.0612561
0.00340045
0.0604398
0.00218333
0.0598481
0.00121691
0.0594549
0.000369389
0.0587835
0.00225699
0.0576912
0.00440755
0.0568964
0.00255066
0.0562627
0.00216537
0.0556885
0.00192744
0.0551589
0.00177895
0.0546474
0.0017652
0.0541267
0.00184533
0.0535749
0.00200437
0.0529711
0.00224591
0.0522884
0.00260296
0.0514953
0.00309331
0.0505412
0.00386659
0.04938
0.00474718
0.0479684
0.00681024
0.0126805
0.0455863
0.0114195
-0.0477367
4.7954e-05
0.0227181
-0.0486903
0.0336185
-0.048139
0.0437168
-0.0442
0.0531137
-0.0420526
0.0615482
-0.0362987
0.0687703
-0.0272961
0.0740773
-0.0125878
0.0783876
-0.0100217
0.0820972
-0.0117017
0.0861714
-0.0155415
0.0908622
-0.0241138
0.0954606
-0.0243419
0.0992001
-0.0176014
0.100241
0.00273223
0.0979629
0.0221698
0.0918438
0.0442496
0.0851679
0.0329504
0.0809052
0.0177996
0.0783245
0.0113711
0.0765252
0.00754233
0.0754287
0.00449707
0.0747435
0.0028685
0.0742835
0.001677
0.0739937
0.000659187
0.0734709
0.00277991
0.0725046
0.00537394
0.071721
0.00333437
0.0711017
0.00278472
0.0705326
0.00249668
0.0699971
0.00231462
0.0694774
0.00228507
0.0689455
0.00237734
0.0683777
0.00257232
0.0677524
0.00287133
0.0670437
0.00331174
0.06622
0.00391717
0.0652429
0.00484378
0.0640568
0.00593333
0.0627288
0.00813835
0.0148553
0.0605541
0.0134821
-0.0612726
5.37611e-05
0.0266104
-0.0618186
0.0391165
-0.0606451
0.0506535
-0.055737
0.061356
-0.0527552
0.0710493
-0.045992
0.0796009
-0.0358477
0.0863972
-0.0193841
0.0923154
-0.0159399
0.097204
-0.0165903
0.102136
-0.0204733
0.10727
-0.0292476
0.112112
-0.0291845
0.116211
-0.0217008
0.118097
0.000846692
0.116892
0.0233749
0.111659
0.049483
0.104567
0.040042
0.0992239
0.0231427
0.0958886
0.0147064
0.0936252
0.00980579
0.0922649
0.00585732
0.0914844
0.00364909
0.0910275
0.00213393
0.0907756
0.000911011
0.0903898
0.00316582
0.0896071
0.00615666
0.0889057
0.00403584
0.0883701
0.00332031
0.0878883
0.00297852
0.0874275
0.00277553
0.0869756
0.00273701
0.0865076
0.00284543
0.0859988
0.00308116
0.0854281
0.00344211
0.0847727
0.00396716
0.0840036
0.00468639
0.0831006
0.00574674
0.0820067
0.00702727
0.0808902
0.0092549
0.0166558
0.0790898
0.0159512
-0.0772834
5.96781e-05
0.0312598
-0.0771272
0.0456688
-0.0750542
0.0588877
-0.0689558
0.0710989
-0.0649664
0.0822129
-0.057106
0.0922057
-0.0458405
0.100546
-0.027724
0.108198
-0.0235926
0.114502
-0.0228935
0.120476
-0.0264478
0.126199
-0.0349709
0.131381
-0.0343662
0.135885
-0.0262048
0.138659
-0.0019273
0.138763
0.0232714
0.135005
0.0532401
0.128245
0.0468027
0.12209
0.0292977
0.11788
0.018916
0.114968
0.0127178
0.113135
0.0076901
0.112041
0.00474293
0.111405
0.00277048
0.111041
0.00127522
0.110652
0.00355478
0.109961
0.00684745
0.10929
0.0047076
0.108787
0.0038226
0.10837
0.00339558
0.107985
0.00316133
0.107615
0.00310699
0.107237
0.00322301
0.106825
0.00349304
0.106357
0.00391061
0.105813
0.00451105
0.10517
0.00532939
0.104429
0.00648771
0.103543
0.00791357
0.102746
0.0100522
0.0179274
0.101474
0.018921
-0.0962701
6.56767e-05
0.0368489
-0.095055
0.0535381
-0.0917433
0.0687538
-0.0841715
0.0827303
-0.0789428
0.0954611
-0.0698369
0.107022
-0.0574012
0.116957
-0.0376587
0.126381
-0.0330168
0.134265
-0.0307775
0.141467
-0.0336505
0.147963
-0.0414666
0.153637
-0.0400396
0.15864
-0.0312082
0.162342
-0.00562926
0.163883
0.0217304
0.162053
0.0550699
0.156455
0.0524008
0.150073
0.0356799
0.145105
0.0238841
0.141513
0.0163099
0.139133
0.0100696
0.137608
0.00626826
0.136667
0.0037118
0.13608
0.00186226
0.135572
0.00406248
0.134877
0.0075428
0.134172
0.00541241
0.133624
0.00437069
0.133196
0.00382366
0.132825
0.00353221
0.132488
0.00344483
0.132161
0.00354935
0.13182
0.00383406
0.131442
0.00428891
0.131012
0.00494138
0.130513
0.00582793
0.129966
0.00703563
0.129343
0.00853598
0.128891
0.0105045
0.0186123
0.128206
0.0225075
-0.118849
7.17331e-05
0.0436016
-0.116149
0.0630452
-0.111187
0.0806594
-0.101786
0.0967268
-0.0950102
0.111321
-0.0844314
0.124609
-0.0706885
0.136212
-0.0492618
0.147391
-0.0441956
0.156936
-0.0403227
0.165518
-0.0422329
0.172983
-0.0489317
0.179343
-0.0463996
0.184997
-0.0368616
0.189673
-0.0103059
0.1927
0.0187041
0.193057
0.0547126
0.189394
0.0560635
0.183626
0.0414478
0.178301
0.0292089
0.174147
0.0204645
0.171248
0.0129688
0.169259
0.00825703
0.167948
0.00502268
0.167078
0.00273256
0.16639
0.00475006
0.165639
0.0082941
0.164885
0.00616625
0.164263
0.00499287
0.16378
0.00430712
0.163381
0.00393103
0.163035
0.00379088
0.162721
0.0038631
0.162417
0.00413814
0.162103
0.0046036
0.161767
0.00527667
0.161405
0.00619018
0.161046
0.00739486
0.160694
0.0088879
0.160555
0.0106435
0.0187678
0.1604
0.0268506
-0.145778
7.78461e-05
0.0517867
-0.141085
0.0745749
-0.133975
0.0950919
-0.122303
0.113663
-0.113581
0.130438
-0.101207
0.145667
-0.0859171
0.159062
-0.0626568
0.17198
-0.0571139
0.183205
-0.0515469
0.193261
-0.0522894
0.201876
-0.0575469
0.209132
-0.0536558
0.215615
-0.0433446
0.221332
-0.0160223
0.225833
0.0142025
0.228428
0.0521183
0.227264
0.0572276
0.223064
0.0456472
0.218111
0.0341619
0.213746
0.02483
0.210482
0.0162329
0.208093
0.0106458
0.206414
0.00670118
0.205245
0.00390243
0.204356
0.00563867
0.203529
0.00912159
0.202739
0.00695575
0.202064
0.00566797
0.201532
0.00483963
0.201107
0.00435556
0.200757
0.00414108
0.20046
0.00415967
0.200199
0.0043994
0.199958
0.00484519
0.199731
0.00550336
0.199523
0.0063982
0.199368
0.00754925
0.199297
0.0089591
0.19946
0.0104811
0.0184824
0.199745
0.0321183
-0.17798
8.4018e-05
0.0617253
-0.170692
0.0885856
-0.160835
0.112631
-0.146348
0.134224
-0.135174
0.153592
-0.120575
0.171059
-0.103384
0.186446
-0.0780436
0.201146
-0.0718143
0.214061
-0.0644613
0.225642
-0.0638705
0.235551
-0.0674559
0.243897
-0.0620018
0.251387
-0.0508351
0.258224
-0.0228585
0.264165
0.00826081
0.268874
0.0474102
0.270443
0.0556582
0.268631
0.0474588
0.265001
0.037792
0.261085
0.0287463
0.257822
0.0194958
0.255247
0.0132215
0.253311
0.00863649
0.251895
0.00531853
0.250833
0.00670135
0.24994
0.0100141
0.249145
0.00775132
0.248467
0.00634604
0.247931
0.00537544
0.247521
0.00476564
0.247208
0.00445339
0.246974
0.00439381
0.246805
0.00456911
0.24669
0.00496004
0.24663
0.00556298
0.246637
0.00639135
0.246745
0.00744087
0.246997
0.00870746
0.247497
0.00998126
0.0177962
0.248183
0.0385121
-0.216582
9.02548e-05
0.0738019
-0.205982
0.105626
-0.192659
0.133971
-0.174694
0.159234
-0.160437
0.181721
-0.143062
0.201833
-0.123497
0.219514
-0.0957246
0.236143
-0.0884429
0.250815
-0.0791336
0.263974
-0.077029
0.275291
-0.0787732
0.28489
-0.0716013
0.293544
-0.0594882
0.301579
-0.0308937
0.308924
0.000915549
0.315538
0.0407965
0.319753
0.0514428
0.320789
0.0464231
0.319383
0.0391976
0.316802
0.031327
0.31416
0.0221377
0.311822
0.0155601
0.309912
0.0105459
0.308431
0.00679972
0.307312
0.00782029
0.30643
0.0108964
0.305692
0.00848869
0.305089
0.0069494
0.304631
0.00583398
0.304311
0.00508537
0.304112
0.00465234
0.304019
0.00448722
0.304022
0.00456584
0.304119
0.00486341
0.304314
0.00536773
0.304623
0.00608196
0.305079
0.00698506
0.305722
0.00806446
0.306625
0.00907834
0.0166851
0.307736
0.0462771
-0.262956
9.65679e-05
0.0884826
-0.248188
0.126359
-0.230535
0.15995
-0.208285
0.189689
-0.190176
0.215966
-0.169339
0.239263
-0.146794
0.259666
-0.116127
0.278503
-0.10728
0.29511
-0.09574
0.309959
-0.0918783
0.322807
-0.0916211
0.333807
-0.0826012
0.343754
-0.069435
0.353057
-0.0401972
0.361786
-0.00781318
0.370092
0.03249
0.376667
0.0448679
0.380592
0.0424989
0.381981
0.0378081
0.381594
0.031714
0.380352
0.0233794
0.378879
0.0170333
0.37748
0.0119447
0.376294
0.0079857
0.375382
0.00873231
0.3747
0.0115792
0.374165
0.00902346
0.373769
0.00734503
0.373518
0.00608565
0.373411
0.00519209
0.373443
0.00462086
0.373605
0.00432487
0.373895
0.00427553
0.374316
0.00444282
0.374876
0.00480768
0.375593
0.00536564
0.376493
0.006085
0.377609
0.00694782
0.378992
0.00769571
0.0150844
0.380593
0.0557157
-0.318775
0.000102972
0.106341
-0.298813
0.151601
-0.275795
0.191598
-0.248282
0.226809
-0.225387
0.257719
-0.200248
0.284901
-0.173976
0.308599
-0.139825
0.330081
-0.128762
0.348939
-0.114598
0.365702
-0.108642
0.380261
-0.10618
0.392828
-0.0951683
0.404203
-0.0808101
0.414855
-0.050849
0.424964
-0.0179222
0.434804
0.0226498
0.443412
0.0362599
0.449975
0.0359356
0.454299
0.0334847
0.456667
0.0293458
0.457545
0.0225018
0.457645
0.0169334
0.457387
0.0122026
0.457027
0.00834571
0.456752
0.00900731
0.45661
0.0117217
0.456548
0.00908486
0.456591
0.0073026
0.456754
0.00592194
0.457052
0.00489415
0.457492
0.00418178
0.458076
0.00374074
0.45881
0.00354131
0.459703
0.00355052
0.460765
0.00374522
0.462014
0.00411658
0.463472
0.00462754
0.465161
0.0052584
0.467114
0.00574271
0.0129051
0.469294
0.0672003
-0.386084
0.000109477
0.128084
-0.359697
0.182357
-0.330068
0.230186
-0.296111
0.2721
-0.267302
0.308694
-0.236842
0.34065
-0.205932
0.36839
-0.167565
0.393123
-0.153495
0.414711
-0.136186
0.433754
-0.127685
0.450305
-0.12273
0.464668
-0.109532
0.477646
-0.0937881
0.489764
-0.0629671
0.50129
-0.0294483
0.512589
0.011351
0.522977
0.0258717
0.531841
0.0270724
0.53892
0.0264059
0.544213
0.0240519
0.547667
0.019048
0.549936
0.014665
0.551449
0.0106891
0.552521
0.0072735
0.553431
0.00809824
0.554304
0.010848
0.555125
0.00826446
0.55596
0.00646762
0.556855
0.00502708
0.557843
0.00390576
0.55895
0.00307507
0.560194
0.00249724
0.56159
0.00214535
0.563153
0.00198728
0.564899
0.0019993
0.566844
0.00217184
0.569005
0.00246669
0.571398
0.00286535
0.574042
0.00309854
0.0100291
0.576918
0.0811854
-0.467386
0.000116057
0.154577
-0.433089
0.219863
-0.395354
0.277276
-0.353524
0.327414
-0.31744
0.370999
-0.280427
0.408846
-0.243778
0.441574
-0.200294
0.470357
-0.182278
0.495331
-0.16116
0.517181
-0.149536
0.536139
-0.141687
0.552629
-0.126022
0.567467
-0.108626
0.581244
-0.0767445
0.594308
-0.0425122
0.607095
-0.00143594
0.61914
0.0138269
0.630031
0.0161819
0.639575
0.0168619
0.647676
0.0159508
0.653847
0.0128769
0.658628
0.00988365
0.662385
0.00693292
0.665422
0.00423589
0.668059
0.00546193
0.670471
0.00843542
0.672664
0.0060721
0.674743
0.00438842
0.676785
0.00298558
0.678846
0.00184417
0.680973
0.000948625
0.683199
0.000271238
0.685552
-0.000208069
0.688056
-0.000516673
0.690731
-0.000675159
0.693593
-0.000690515
0.696659
-0.00059878
0.699939
-0.000415122
0.703446
-0.000408118
0.00629201
0.707183
0.0889608
-0.556458
0.000111827
0.169282
-0.51341
0.240626
-0.466698
0.303272
-0.41617
0.357844
-0.372011
0.405134
-0.327717
0.446026
-0.28467
0.481283
-0.235551
0.51197
-0.212964
0.538458
-0.187648
0.561465
-0.172542
0.581365
-0.161588
0.598678
-0.143335
0.614174
-0.124123
0.628471
-0.0910417
0.641957
-0.0559976
0.655084
-0.0145628
0.667564
0.00134692
0.679176
0.00456932
0.689847
0.00619078
0.699511
0.00628762
0.707458
0.00493012
0.7141
0.00324091
0.719696
0.00133739
0.724485
-0.000553585
0.728755
0.00119215
0.732684
0.00450723
0.736277
0.00247893
0.739652
0.00101353
0.742895
-0.000258141
0.746078
-0.00133783
0.749253
-0.00222723
0.752467
-0.00294269
0.755755
-0.00349557
0.759144
-0.0039062
0.762659
-0.00418974
0.766317
-0.00434861
0.770133
-0.00441482
0.774118
-0.00439933
0.778277
-0.00456783
0.00192794
0.782641
0.0955957
-0.65216
0.000106356
0.181831
-0.599646
0.258354
-0.54322
0.325477
-0.483293
0.383849
-0.430383
0.434322
-0.378191
0.477837
-0.328186
0.515274
-0.272987
0.547619
-0.24531
0.575425
-0.215454
0.599436
-0.196553
0.620136
-0.182288
0.638122
-0.16132
0.654134
-0.140135
0.668811
-0.105719
0.682573
-0.0697594
0.695884
-0.0278742
0.708574
-0.0113427
0.720546
-0.00740267
0.731822
-0.00508507
0.742398
-0.0042883
0.751479
-0.00415127
0.759407
-0.00468647
0.766361
-0.00561716
0.772525
-0.00671683
0.778138
-0.00442151
0.783363
-0.000717525
0.7882
-0.00235781
0.792758
-0.00354512
0.797125
-0.0046242
0.801369
-0.00558188
0.805549
-0.00640726
0.809712
-0.0071058
0.813896
-0.00767996
0.818132
-0.00814253
0.822445
-0.00850246
0.826853
-0.00875688
0.831372
-0.00893307
0.83601
-0.00903762
0.840774
-0.00933213
-0.00301165
0.845714
0.102869
-0.755131
0.00010185
0.195603
-0.69238
0.277839
-0.625456
0.349924
-0.555378
0.412537
-0.492995
0.466595
-0.432249
0.513104
-0.374695
0.553051
-0.312934
0.587388
-0.279646
0.616814
-0.244881
0.642108
-0.221847
0.66385
-0.20403
0.682706
-0.180177
0.699409
-0.156837
0.714629
-0.120938
0.728815
-0.0839458
0.742447
-0.0415067
0.755433
-0.0243278
0.767758
-0.0197282
0.779517
-0.0168443
0.790766
-0.0155372
0.800678
-0.0140632
0.809565
-0.0135736
0.817568
-0.0136196
0.824828
-0.013977
0.831552
-0.0111451
0.83788
-0.00704593
0.843806
-0.00828416
0.849429
-0.00916758
0.854826
-0.0100209
0.860063
-0.0108191
0.865196
-0.0115406
0.870272
-0.0121814
0.875327
-0.0127355
0.880393
-0.0132085
0.885494
-0.0136033
0.890649
-0.0139118
0.895872
-0.0141565
0.901175
-0.0143398
0.906561
-0.0147185
-0.00854781
0.912097
0.110819
-0.866048
9.80701e-05
0.210672
-0.792233
0.299183
-0.713967
0.376731
-0.632926
0.444034
-0.560298
0.502079
-0.490294
0.551945
-0.424561
0.594724
-0.355713
0.631357
-0.316279
0.662678
-0.276202
0.689506
-0.248675
0.712504
-0.227028
0.732412
-0.200084
0.749966
-0.174392
0.765877
-0.136849
0.780628
-0.0986968
0.794719
-0.0555969
0.808105
-0.037714
0.820834
-0.0324579
0.833056
-0.0290661
0.844877
-0.0273581
0.855459
-0.0246451
0.86511
-0.0232242
0.873951
-0.0224605
0.882103
-0.0221291
0.889747
-0.0187892
0.897009
-0.0143082
0.903876
-0.0151506
0.910433
-0.0157251
0.916751
-0.0163393
0.922891
-0.0169584
0.928902
-0.017552
0.934828
-0.0181075
0.940705
-0.0186119
0.94656
-0.0190641
0.952418
-0.0194614
0.958297
-0.0197908
0.964211
-0.0200704
0.97017
-0.0202989
0.97618
-0.0207278
-0.0146861
0.982318
0.119497
-0.98564
9.48059e-05
0.227132
-0.899869
0.322513
-0.809348
0.406053
-0.716466
0.478516
-0.632761
0.540965
-0.552743
0.594557
-0.478153
0.640489
-0.401645
0.679718
-0.355508
0.713196
-0.30968
0.741793
-0.277271
0.766252
-0.251488
0.787382
-0.221215
0.805943
-0.192952
0.822687
-0.153594
0.838134
-0.114144
0.85281
-0.0702729
0.866707
-0.0516104
0.879915
-0.0456664
0.892629
-0.0417795
0.904996
-0.0397259
0.916175
-0.0358241
0.926481
-0.0335294
0.936029
-0.0320088
0.944931
-0.0310315
0.953354
-0.027212
0.961414
-0.0223676
0.969091
-0.0228283
0.976465
-0.0230991
0.983598
-0.0234721
0.990544
-0.0239041
0.997349
-0.024357
1.00405
-0.0248107
1.01069
-0.0252457
1.01728
-0.0256553
1.02385
-0.0260314
1.03041
-0.026357
1.03699
-0.026646
1.04358
-0.0268936
1.0502
-0.0273461
-0.0214171
1.05693
0.128963
-1.11469
9.19619e-05
0.245095
-1.016
0.347986
-0.912239
0.438085
-0.806564
0.516206
-0.710883
0.583497
-0.620033
0.641199
-0.535855
0.69062
-0.451067
0.732745
-0.397632
0.768643
-0.345577
0.799239
-0.307868
0.825358
-0.277606
0.84788
-0.243737
0.867594
-0.212666
0.885307
-0.171306
0.901575
-0.130413
0.916955
-0.0856535
0.931466
-0.0661213
0.945234
-0.0594343
0.958489
-0.0550347
0.971418
-0.0526541
0.98317
-0.0475769
0.994077
-0.0444358
1.00426
-0.0421882
1.01382
-0.0405929
1.02292
-0.0363148
1.03168
-0.0311232
1.04006
-0.0312158
1.04816
-0.0311909
1.05601
-0.0313254
1.06367
-0.0315684
1.07119
-0.0318744
1.0786
-0.0322167
1.08592
-0.0325701
1.09319
-0.0329222
1.10042
-0.0332607
1.10762
-0.0335646
1.11482
-0.0338441
1.12202
-0.0340915
1.12922
-0.0345474
-0.0287192
1.13652
0.139286
-1.25407
8.94745e-05
0.26469
-1.1414
0.375782
-1.02333
0.473049
-0.903831
0.557365
-0.795199
0.629965
-0.692632
0.692186
-0.598077
0.74545
-0.50433
0.790782
-0.442964
0.829369
-0.384164
0.8622
-0.3407
0.890179
-0.305585
0.914263
-0.267821
0.935279
-0.233683
0.954091
-0.190118
0.9713
-0.147621
0.987496
-0.10185
1.00272
-0.0813453
1.01713
-0.0738416
1.03098
-0.0688891
1.0445
-0.0661733
1.05683
-0.0599065
1.06832
-0.0559217
1.07909
-0.0529566
1.08925
-0.0507555
1.09896
-0.0460303
1.10834
-0.0405014
1.11736
-0.0402352
1.12609
-0.0399207
1.13459
-0.0398199
1.14289
-0.0398738
1.15105
-0.04003
1.15908
-0.0402554
1.16703
-0.0405192
1.17492
-0.0408042
1.18275
-0.0410937
1.19055
-0.0413633
1.19832
-0.0416198
1.20608
-0.0418527
1.21383
-0.042297
-0.0365618
1.22168
0.150543
-1.4047
8.72552e-05
0.286061
-1.27692
0.406106
-1.14338
0.511203
-1.00893
0.602294
-0.88629
0.680707
-0.771046
0.747885
-0.665254
0.805369
-0.561814
0.854238
-0.491834
0.895798
-0.425724
0.931107
-0.376009
0.961153
-0.33563
0.986972
-0.29364
1.00944
-0.256151
1.02948
-0.210162
1.04775
-0.165886
1.06487
-0.11897
1.0809
-0.0973757
1.09602
-0.0889647
1.11054
-0.0834007
1.12468
-0.0803205
1.1376
-0.072828
1.14966
-0.0679823
1.161
-0.0642919
1.17173
-0.061483
1.18201
-0.056312
1.19196
-0.0504487
1.20155
-0.0498264
1.21085
-0.0492247
1.21992
-0.0488895
1.2288
-0.0487536
1.23753
-0.0487577
1.24614
-0.0488622
1.25465
-0.049031
1.26309
-0.049242
1.27147
-0.0494745
1.2798
-0.0497007
1.28811
-0.0499244
1.29639
-0.0501325
1.30464
-0.050554
-0.0449072
1.31299
0.16282
-1.56761
8.52605e-05
0.309373
-1.42348
0.439189
-1.27319
0.552838
-1.12258
0.651333
-0.984785
0.736107
-0.85582
0.808716
-0.737863
0.870828
-0.623926
0.923587
-0.544593
0.96842
-0.470557
1.00647
-0.414055
1.03879
-0.367959
1.06653
-0.321378
1.09061
-0.280227
1.11202
-0.231571
1.13146
-0.185325
1.1496
-0.137117
1.16653
-0.114301
1.18244
-0.104876
1.19766
-0.0986247
1.21248
-0.0951325
1.22601
-0.0863606
1.23865
-0.0806204
1.25054
-0.0761819
1.2618
-0.0727504
1.27262
-0.0671251
1.28309
-0.0609232
1.29321
-0.0599409
1.30303
-0.0590491
1.31262
-0.0584769
1.32201
-0.0581486
1.33125
-0.0579972
1.34037
-0.0579769
1.34938
-0.058046
1.35832
-0.0581775
1.36719
-0.0583468
1.37601
-0.0585229
1.38479
-0.0587063
1.39354
-0.0588819
1.40226
-0.0592721
-0.0537119
1.41107
0.176215
-1.74391
8.33457e-05
0.33481
-1.58207
0.475291
-1.41367
0.59828
-1.24557
0.704866
-1.09137
0.796599
-0.947553
0.875153
-0.816417
0.942336
-0.691109
0.999366
-0.601622
1.0478
-0.518987
1.08885
-0.455111
1.1237
-0.402804
1.15355
-0.351228
1.17939
-0.306073
1.20231
-0.254484
1.22304
-0.206055
1.24231
-0.156392
1.26022
-0.132207
1.27699
-0.121644
1.29297
-0.114612
1.30848
-0.110643
1.32264
-0.100522
1.33586
-0.0938395
1.3483
-0.0886174
1.36009
-0.084537
1.3714
-0.0784401
1.38237
-0.0718881
1.39296
-0.0705348
1.40326
-0.0693448
1.41331
-0.0685291
1.42316
-0.0680027
1.43286
-0.0676908
1.44242
-0.0675407
1.45188
-0.067505
1.46125
-0.0675518
1.47056
-0.0676524
1.47981
-0.0677728
1.48901
-0.0679102
1.49818
-0.0680471
1.5073
-0.0683996
-0.0629262
1.51652
0.190836
-1.93482
8.15111e-05
0.362576
-1.75381
0.514704
-1.5658
0.647895
-1.37876
0.763327
-1.2068
0.86267
-1.0469
0.947734
-0.90148
1.02047
-0.763847
1.08219
-0.663336
1.13457
-0.571367
1.17893
-0.499475
1.21654
-0.440412
1.24871
-0.383397
1.27649
-0.333861
1.30105
-0.279044
1.3232
-0.228197
1.3437
-0.176898
1.36267
-0.151176
1.38036
-0.139332
1.39716
-0.131408
1.41339
-0.12688
1.4282
-0.115328
1.442
-0.107641
1.45497
-0.101587
1.46725
-0.0968211
1.47904
-0.0902268
1.49046
-0.0833065
1.50149
-0.0815648
1.51221
-0.080063
1.52267
-0.078993
1.53293
-0.0782596
1.54302
-0.0777796
1.55297
-0.077493
1.56281
-0.0773464
1.57256
-0.0773029
1.58224
-0.0773295
1.59185
-0.0773888
1.60142
-0.077475
1.61094
-0.0775681
1.62042
-0.0778774
-0.0724928
1.62998
0.206804
-2.14171
7.95748e-05
0.392902
-1.93991
0.557753
-1.73065
0.702094
-1.5231
0.827198
-1.33191
0.934868
-1.15457
1.02706
-0.993669
1.10588
-0.842669
1.17273
-0.730186
1.22944
-0.628079
1.27744
-0.547468
1.31808
-0.481053
1.35279
-0.418106
1.3827
-0.363775
1.40906
-0.305404
1.43274
-0.251876
1.45458
-0.198738
1.47469
-0.17129
1.49336
-0.157999
1.511
-0.149053
1.52799
-0.143863
1.54344
-0.130783
1.55782
-0.122018
1.57131
-0.115074
1.58406
-0.109576
1.59629
-0.10245
1.60812
-0.095137
1.61953
-0.0929829
1.63062
-0.0911503
1.64144
-0.0898107
1.65204
-0.0888578
1.66246
-0.0881994
1.67273
-0.0877676
1.68289
-0.0875027
1.69295
-0.0873622
1.70293
-0.0873088
1.71284
-0.0873017
1.7227
-0.0873316
1.7325
-0.0873762
1.74226
-0.0876375
-0.0823451
1.75212
0.224254
-2.36604
7.75965e-05
0.426043
-2.1417
0.604804
-1.90941
0.761337
-1.67963
0.897021
-1.46759
1.01381
-1.27135
1.1138
-1.09366
1.19929
-0.928157
1.27177
-0.802668
1.33323
-0.689543
1.38521
-0.599444
1.42918
-0.525019
1.46667
-0.455597
1.4989
-0.396013
1.52722
-0.333725
1.55257
-0.277222
1.57585
-0.222016
1.59719
-0.192627
1.61689
-0.177701
1.63541
-0.167578
1.65315
-0.161604
1.66926
-0.146888
1.6842
-0.136958
1.69818
-0.129053
1.71137
-0.122766
1.72398
-0.115067
1.73618
-0.107329
1.74793
-0.104732
1.75932
-0.102544
1.77042
-0.100915
1.78129
-0.0997269
1.79197
-0.0988767
1.80249
-0.0982886
1.81289
-0.0978961
1.82317
-0.0976508
1.83338
-0.0975106
1.84351
-0.0974312
1.85357
-0.0973995
1.86359
-0.097391
1.87355
-0.0975997
-0.0924038
1.88361
0.243338
-2.60945
7.54235e-05
0.462288
-2.36065
0.656263
-2.10339
0.826137
-1.84951
0.973403
-1.61486
1.10017
-1.39812
1.20872
-1.20221
1.30151
-1.02095
1.38017
-0.881326
1.44685
-0.756218
1.50319
-0.655788
1.5508
-0.572629
1.59133
-0.496132
1.62611
-0.430787
1.65656
-0.36418
1.68371
-0.304373
1.70854
-0.24684
1.73118
-0.215266
1.75196
-0.198487
1.77139
-0.187009
1.78989
-0.180102
1.80663
-0.163628
1.82211
-0.152433
1.83654
-0.143487
1.85012
-0.136343
1.86307
-0.128021
1.87556
-0.11982
1.88757
-0.116743
1.8992
-0.114171
1.91051
-0.112228
1.92157
-0.110783
1.93242
-0.109725
1.9431
-0.108967
1.95363
-0.108435
1.96406
-0.108076
1.97439
-0.107841
1.98464
-0.107682
1.99482
-0.107583
2.00495
-0.107517
2.01502
-0.107668
-0.102574
2.02519
0.264225
-2.87375
7.32006e-05
0.501958
-2.59838
0.712587
-2.31402
0.89707
-2.03399
1.05702
-1.77481
1.19473
-1.53583
1.31266
-1.32013
1.41347
-1.12176
1.4989
-0.966762
1.5713
-0.828612
1.63243
-0.716922
1.68404
-0.624233
1.7279
-0.539998
1.76544
-0.468328
1.79821
-0.396952
1.82731
-0.333472
1.85379
-0.273319
1.87781
-0.239282
1.89972
-0.220402
1.92007
-0.207359
1.93932
-0.199346
1.95667
-0.180978
1.97264
-0.168404
1.98747
-0.158321
2.00137
-0.150244
2.01459
-0.141241
2.0273
-0.132532
2.03949
-0.128931
2.05126
-0.125937
2.06268
-0.123651
2.07382
-0.121927
2.08474
-0.12064
2.09547
-0.119695
2.10604
-0.119011
2.11649
-0.118526
2.12684
-0.118187
2.1371
-0.117941
2.14728
-0.117769
2.15741
-0.117639
2.16747
-0.117728
-0.112742
2.17763
0.287105
-3.16092
7.08456e-05
0.545411
-2.85669
0.774288
-2.54289
0.974781
-2.23448
1.14865
-1.94868
1.29836
-1.68554
1.42657
-1.44835
1.53618
-1.23137
1.62905
-1.05964
1.70773
-0.907284
1.77412
-0.783315
1.8301
-0.680217
1.87761
-0.587508
1.91817
-0.508888
1.95346
-0.43224
1.98466
-0.364672
2.01291
-0.301567
2.03837
-0.264749
2.06146
-0.243482
2.08273
-0.228633
2.10269
-0.219307
2.12061
-0.198895
2.13702
-0.184813
2.15218
-0.173487
2.16632
-0.164387
2.17972
-0.154634
2.19255
-0.145364
2.20481
-0.141187
2.2166
-0.137731
2.22802
-0.135067
2.23912
-0.133033
2.24998
-0.131495
2.26063
-0.130344
2.27111
-0.129491
2.28145
-0.128867
2.29167
-0.128413
2.3018
-0.128071
2.31185
-0.127818
2.32183
-0.127618
2.33174
-0.127639
-0.122769
2.34177
0.31219
-3.47318
6.8503e-05
0.593053
-3.13755
0.841939
-2.79178
1.05999
-2.45254
1.24912
-2.13781
1.41201
-1.84842
1.55152
-1.58786
1.67079
-1.35064
1.77185
-1.16069
1.85742
-0.992853
1.92958
-0.855482
1.99037
-0.741004
2.04187
-0.639006
2.08572
-0.552742
2.12374
-0.470258
2.1572
-0.398134
2.18733
-0.331698
2.21432
-0.29174
2.2386
-0.267759
2.26079
-0.25082
2.28142
-0.239939
2.29984
-0.217317
2.31661
-0.201582
2.33201
-0.188889
2.34629
-0.178665
2.35974
-0.168085
2.37257
-0.158192
2.38476
-0.153381
2.39645
-0.149413
2.40771
-0.14633
2.41863
-0.143954
2.42927
-0.142136
2.43968
-0.140756
2.44991
-0.139715
2.45998
-0.138936
2.46992
-0.138354
2.47975
-0.137906
2.4895
-0.137563
2.49917
-0.137287
2.50876
-0.137234
-0.132487
2.51848
0.33972
-3.81297
6.6095e-05
0.645336
-3.44317
0.916183
-3.06262
1.15352
-2.68987
1.35942
-2.34371
1.53678
-2.02578
1.68871
-1.7398
1.81861
-1.48053
1.92865
-1.27074
2.02181
-1.08601
2.10032
-0.933994
2.16638
-0.807063
2.22224
-0.694871
2.26969
-0.600187
2.31067
-0.511239
2.34657
-0.43403
2.3787
-0.363832
2.40728
-0.320322
2.43277
-0.293249
2.45585
-0.273894
2.47708
-0.261172
2.49592
-0.236158
2.51295
-0.218605
2.52847
-0.20441
2.54275
-0.192947
2.55611
-0.18145
2.56879
-0.170863
2.58075
-0.165349
2.59215
-0.160813
2.60309
-0.157264
2.61364
-0.154507
2.62388
-0.152376
2.63387
-0.15074
2.64364
-0.149489
2.65324
-0.148537
2.6627
-0.147812
2.67204
-0.147246
2.68128
-0.146803
2.69044
-0.146443
2.69951
-0.14631
-0.141695
2.70872
0.369961
-4.18299
6.37045e-05
0.70277
-3.77598
0.997746
-3.3576
1.25627
-2.9484
1.4806
-2.56804
1.67389
-2.21906
1.83949
-1.90541
1.98108
-1.62212
2.10103
-1.39069
2.20253
-1.18751
2.28802
-1.01948
2.35987
-0.878912
2.42051
-0.75552
2.47188
-0.651554
2.51607
-0.555432
2.55459
-0.472542
2.58885
-0.398091
2.61908
-0.350557
2.64579
-0.319961
2.66971
-0.297811
2.69145
-0.282914
2.7106
-0.255306
2.72775
-0.235752
2.74323
-0.219898
2.75735
-0.207066
2.77045
-0.194549
2.78278
-0.183188
2.79432
-0.176892
2.80523
-0.171723
2.81562
-0.167655
2.82558
-0.164471
2.8352
-0.161989
2.84452
-0.160066
2.85361
-0.15858
2.86251
-0.157434
2.87124
-0.156548
2.87985
-0.15585
2.88834
-0.155296
2.89674
-0.154843
2.90505
-0.154623
-0.150147
2.91351
0.403217
-4.58627
6.11558e-05
0.765928
-4.13869
1.08744
-3.67911
1.36928
-3.23023
1.6139
-2.81266
1.82472
-2.42988
2.00538
-2.08607
2.15985
-1.77659
2.2907
-1.52154
2.4014
-1.2982
2.49457
-1.11266
2.57278
-0.957126
2.63868
-0.821415
2.69432
-0.707202
2.742
-0.60311
2.78332
-0.513864
2.81983
-0.434599
2.85178
-0.382503
2.8797
-0.347886
2.90439
-0.322502
2.92652
-0.305037
2.94583
-0.274616
2.96293
-0.252851
2.97819
-0.235165
2.99194