/*--------------------------------*- C++ -*----------------------------------*\
  =========                 |
  \\      /  F ield         | OpenFOAM: The Open Source CFD Toolbox
   \\    /   O peration     | Website:  https://openfoam.org
    \\  /    A nd           | Version:  11
     \\/     M anipulation  |
\*---------------------------------------------------------------------------*/
FoamFile
{
    format      ascii;
    class       volVectorField;
    location    "100";
    object      U;
}
// * * * * * * * * * * * * * * * * * * * * * * * * * * * * * * * * * * * * * //

dimensions      [0 1 -1 0 0 0 0];

internalField   nonuniform List<vector> 
11040
(
(1.62159 2.07572 7.54881e-18)
(2.19131 6.3998 -1.65644e-17)
(3.7861 10.8676 -1.80192e-17)
(6.35922 14.7293 2.29814e-17)
(9.62876 17.9277 -1.18165e-17)
(13.6767 20.1997 4.32051e-18)
(18.1165 21.105 0)
(21.2674 19.2166 -6.99522e-18)
(22.5615 16.5623 0)
(23.4535 15.0968 -1.51238e-17)
(24.614 14.8374 0)
(26.7004 15.891 0)
(30.2525 17.0596 3.43054e-17)
(34.9128 16.8753 0)
(37.9116 13.1966 0)
(36.6992 6.79465 0)
(28.9056 -0.667706 0)
(21.4241 -4.46623 5.94807e-17)
(18.8782 -4.84272 4.6595e-17)
(19.0005 -4.2474 -3.70252e-17)
(19.3835 -3.85568 3.12285e-17)
(19.4024 -3.65923 -8.99833e-19)
(19.2477 -3.53466 -2.38915e-17)
(19.0833 -3.44055 2.6604e-19)
(19.0487 -3.37167 0)
(18.8979 -3.46565 0)
(18.0809 -3.65256 0)
(17.2988 -3.64994 0)
(16.8072 -3.55313 2.07623e-17)
(16.4503 -3.45659 0)
(16.0903 -3.36739 0)
(15.708 -3.27836 5.24424e-20)
(15.3133 -3.18803 1.4434e-20)
(14.9026 -3.09596 -1.46827e-20)
(14.4634 -2.99969 9.77615e-19)
(13.9858 -2.89641 -3.07252e-18)
(13.4412 -2.78028 -5.20581e-18)
(12.8338 -2.64959 -6.10197e-20)
(12.0044 -2.47814 3.66104e-20)
(11.2741 -2.25974 0)
(8.56087 -2.03744 1.91055e-17)
(2.78981 1.96804 -1.16049e-18)
(3.50591 5.92887 -6.78273e-19)
(5.25853 9.83872 -1.13167e-17)
(8.01123 13.1662 -4.59682e-18)
(11.3914 15.8364 0)
(15.5911 17.5125 1.09287e-18)
(20.0797 17.7189 4.29779e-19)
(24.0436 16.241 2.27544e-18)
(25.7473 14.7618 -9.79829e-18)
(26.3193 14.3237 -9.92307e-20)
(27.0819 14.5769 -2.34015e-19)
(28.7046 15.6341 7.92954e-19)
(32.0347 15.974 0)
(36.5526 14.2218 0)
(40.7884 9.26529 0)
(43.1377 3.60202 9.20375e-18)
(39.9719 -2.58033 1.83218e-18)
(33.2712 -4.7 -3.19689e-17)
(27.9861 -4.33926 -2.08789e-17)
(25.2482 -3.97191 -4.73436e-19)
(23.9108 -3.87201 -1.73484e-17)
(23.0706 -3.79095 1.56698e-17)
(22.4686 -3.70597 -4.72916e-19)
(22.0246 -3.64748 -9.00894e-20)
(21.7622 -3.62738 -1.16962e-17)
(21.5197 -3.82119 3.27055e-19)
(20.9396 -4.08475 -1.02202e-17)
(20.135 -3.97138 -1.1033e-19)
(19.5085 -3.82694 -6.22316e-18)
(19.0107 -3.73011 0)
(18.5503 -3.64386 0)
(18.1056 -3.5556 -5.92976e-18)
(17.6732 -3.46657 3.74241e-20)
(17.243 -3.37603 6.46305e-19)
(16.8005 -3.28038 -5.5069e-20)
(16.3372 -3.17672 0)
(15.8285 -3.05989 3.17533e-18)
(15.2915 -2.92745 -1.51528e-20)
(14.5677 -2.75271 -6.1096e-18)
(14.0585 -2.53307 0)
(12.1519 -2.29225 -1.96056e-17)
(4.43274 1.79501 0)
(5.14773 5.39925 4.8322e-18)
(6.71413 8.90847 3.85631e-18)
(9.05154 11.9823 1.01079e-17)
(11.9639 14.4812 -5.63e-19)
(15.4998 16.1991 4.45195e-18)
(19.3007 16.825 -5.22365e-19)
(22.6199 16.1247 9.24821e-19)
(24.5725 15.1725 1.71603e-18)
(25.6819 14.7771 -7.68754e-18)
(26.8641 14.8015 0)
(28.7178 15.357 -8.62314e-19)
(31.8354 15.3668 1.62008e-17)
(35.8992 13.8289 -2.12775e-17)
(39.4571 9.55388 0)
(41.4998 4.2783 -7.31607e-18)
(40.7633 -1.85254 1.38136e-18)
(36.8933 -4.45954 2.04698e-17)
(32.7021 -4.68388 -1.74857e-17)
(29.7181 -4.54164 1.42529e-17)
(27.7584 -4.42788 1.20239e-17)
(26.3697 -4.28542 -1.08627e-17)
(25.3655 -4.15225 0)
(24.629 -4.06294 9.49308e-18)
(24.1382 -4.02082 8.95787e-18)
(23.6933 -4.1685 -5.07637e-19)
(22.9699 -4.38164 7.56324e-18)
(22.1677 -4.29293 -1.65585e-19)
(21.51 -4.16967 4.98094e-18)
(20.968 -4.07679 -3.95499e-18)
(20.4633 -3.98396 3.10761e-18)
(19.9731 -3.88544 2.19435e-18)
(19.4962 -3.78523 -1.38597e-18)
(19.025 -3.68282 -4.60952e-19)
(18.5461 -3.57458 -4.12324e-19)
(18.0506 -3.45694 1.29686e-18)
(17.5146 -3.32498 -1.39231e-20)
(16.9529 -3.17078 0)
(16.2289 -2.98062 8.44926e-20)
(15.6649 -2.7027 -3.21717e-20)
(14.07 -2.4243 6.81332e-18)
(6.22713 1.61852 0)
(6.89186 4.87857 -1.22637e-18)
(8.26656 8.01449 -2.94392e-18)
(10.2734 10.7975 -7.92975e-18)
(12.8094 13.0779 2.212e-18)
(15.8488 14.7223 -5.70959e-18)
(19.1336 15.5098 -2.05562e-18)
(22.0869 15.2829 1.24439e-18)
(24.1909 14.5796 4.9031e-18)
(25.5854 14.1741 1.022e-17)
(26.9118 14.1631 -1.63532e-18)
(28.7619 14.538 -3.89053e-19)
(31.5599 14.462 2.64377e-19)
(35.1265 13.1084 1.89441e-17)
(38.3757 9.52563 -2.30105e-18)
(40.111 4.88437 0)
(39.6722 -0.707587 -2.13919e-18)
(37.0583 -3.81386 2.47682e-18)
(34.0049 -4.51532 2.84292e-17)
(31.6896 -4.55144 -6.7966e-19)
(29.9897 -4.52769 1.05359e-17)
(28.6143 -4.44888 6.38811e-19)
(27.5088 -4.3476 0)
(26.6355 -4.27185 0)
(25.9955 -4.23144 -7.45979e-18)
(25.4328 -4.35285 4.22907e-19)
(24.659 -4.55445 -5.7659e-18)
(23.8327 -4.50437 0)
(23.1385 -4.38918 -3.6935e-18)
(22.5626 -4.29231 2.92131e-18)
(22.0308 -4.19677 -4.90929e-18)
(21.5165 -4.09523 -1.73029e-18)
(21.0171 -3.99052 1.07512e-18)
(20.5259 -3.88229 0)
(20.0307 -3.76702 0)
(19.5229 -3.64048 -4.48638e-20)
(18.9807 -3.49799 0)
(18.4167 -3.32763 0)
(17.7136 -3.12399 3.41099e-18)
(17.1424 -2.80518 -4.84834e-20)
(15.7459 -2.49696 1.80606e-20)
(8.0785 1.44396 -2.65864e-19)
(8.68742 4.36287 0)
(9.88323 7.13556 3.103e-18)
(11.5875 9.61833 -1.08972e-18)
(13.7471 11.6843 4.55056e-18)
(16.3137 13.2504 -5.5341e-18)
(19.1001 14.1603 2.48068e-18)
(21.6959 14.3284 -1.64495e-19)
(23.8207 13.9807 0)
(25.4022 13.6979 -4.97111e-19)
(26.8383 13.6569 5.93761e-18)
(28.6696 13.8166 4.59105e-18)
(31.1901 13.5837 -8.94227e-18)
(34.2923 12.3342 0)
(37.2341 9.31981 -1.43126e-17)
(39.0018 5.24076 0)
(38.7511 0.23679 7.0075e-18)
(36.6338 -3.02815 -2.21156e-19)
(34.0466 -4.05969 -1.01535e-18)
(32.1028 -4.26443 2.56076e-18)
(30.7417 -4.36322 -9.88875e-18)
(29.6374 -4.38876 -8.9957e-18)
(28.6982 -4.35553 9.67406e-19)
(27.903 -4.32315 0)
(27.2687 -4.31054 6.28327e-18)
(26.7001 -4.42342 -6.71397e-19)
(25.9701 -4.61982 5.10417e-18)
(25.1794 -4.61116 -2.23107e-19)
(24.4865 -4.51375 4.08566e-19)
(23.9009 -4.42288 -2.6842e-18)
(23.3626 -4.3331 1.78612e-18)
(22.844 -4.23477 1.62447e-18)
(22.3411 -4.13013 -1.7719e-20)
(21.8479 -4.01974 -2.39857e-20)
(21.3532 -3.9005 3.31021e-21)
(20.8493 -3.76758 -1.7527e-20)
(20.3168 -3.6165 -5.8218e-20)
(19.7676 -3.4323 2.58514e-20)
(19.103 -3.21506 -2.57082e-18)
(18.5553 -2.86727 0)
(17.366 -2.53128 3.70208e-18)
(9.94331 1.27307 9.85052e-19)
(10.4943 3.85821 -6.97059e-19)
(11.5213 6.28389 2.12129e-18)
(12.9504 8.46949 -3.73712e-18)
(14.7557 10.3205 -2.49734e-18)
(16.8911 11.7895 9.05793e-18)
(19.2221 12.7695 2.02917e-18)
(21.4611 13.2255 4.93851e-19)
(23.5051 13.2105 0)
(25.2072 13.0714 -4.90094e-18)
(26.74 13.008 -4.75889e-18)
(28.5374 12.9975 -2.48284e-18)
(30.7949 12.6454 2.82592e-18)
(33.4602 11.5059 1.84678e-18)
(36.056 9.02943 1.2118e-17)
(37.852 5.59107 -2.52545e-18)
(37.9843 1.19881 -3.23329e-18)
(36.3494 -2.10996 -2.21463e-17)
(34.0255 -3.49634 -9.76335e-18)
(32.1468 -3.90714 1.9056e-18)
(30.8691 -4.10712 4.49172e-18)
(29.9056 -4.21273 7.62892e-18)
(29.1108 -4.23963 -6.12079e-18)
(28.436 -4.24998 0)
(27.8793 -4.26989 0)
(27.3802 -4.38049 0)
(26.7664 -4.56935 3.98124e-18)
(26.0766 -4.60318 0)
(25.4406 -4.53712 0)
(24.8886 -4.46184 2.2123e-18)
(24.3791 -4.38407 0)
(23.8868 -4.29472 -1.30762e-18)
(23.4073 -4.19532 8.39948e-19)
(22.9362 -4.08732 0)
(22.4645 -3.9682 0)
(21.9856 -3.83282 -6.16734e-19)
(21.4834 -3.67678 2.51997e-20)
(20.9694 -3.48347 1.53251e-18)
(20.365 -3.25611 2.07156e-18)
(19.8622 -2.89491 -2.55953e-18)
(18.8959 -2.54401 -2.99239e-18)
(11.7842 1.10834 0)
(12.2762 3.3735 0)
(13.1473 5.47317 1.62762e-18)
(14.3315 7.37287 1.26274e-18)
(15.8161 9.01061 0)
(17.5663 10.3648 -3.35106e-18)
(19.4893 11.3657 -4.86149e-19)
(21.3874 12.0019 -1.76784e-18)
(23.2685 12.2556 6.5306e-19)
(24.9961 12.2784 -2.62917e-20)
(26.5814 12.2331 0)
(28.3243 12.1174 2.09095e-18)
(30.3411 11.6906 -1.44018e-17)
(32.6176 10.6598 6.27382e-18)
(34.8756 8.65289 4.05428e-18)
(36.6223 5.84377 8.74465e-18)
(37.1476 2.12244 -6.45669e-18)
(36.0902 -1.09968 6.69747e-18)
(34.1206 -2.81501 -8.10517e-18)
(32.2906 -3.47823 0)
(30.9776 -3.79415 -6.07819e-18)
(30.021 -3.97762 -5.65976e-18)
(29.2626 -4.06282 1.02234e-17)
(28.632 -4.11119 0)
(28.1114 -4.15824 4.21652e-18)
(27.6545 -4.26445 3.76311e-18)
(27.1358 -4.43567 3.60073e-19)
(26.5493 -4.50086 -7.08501e-20)
(25.988 -4.46826 -3.29259e-19)
(25.4908 -4.4114 0)
(25.0313 -4.34749 0)
(24.5862 -4.2702 1.09257e-18)
(24.1506 -4.17962 1.30724e-20)
(23.7216 -4.07734 4.00551e-19)
(23.2924 -3.96152 0)
(22.8578 -3.82703 -3.85867e-19)
(22.4056 -3.66953 -3.12822e-20)
(21.9462 -3.47235 -1.21051e-18)
(21.4229 -3.23963 1.51603e-18)
(20.9828 -2.88176 2.13081e-18)
(20.2445 -2.52845 0)
(13.5642 0.952519 0)
(13.998 2.91739 -1.46721e-18)
(14.7291 4.71606 2.50356e-18)
(15.7002 6.34746 -6.9825e-18)
(16.905 7.77711 3.55298e-18)
(18.321 9.0013 2.7703e-18)
(19.8875 9.97724 0)
(21.4712 10.7019 1.19583e-18)
(23.136 11.1423 0)
(24.794 11.3187 3.95699e-19)
(26.3699 11.3236 -1.12063e-18)
(28.0336 11.1622 1.05764e-18)
(29.8314 10.7085 3.832e-18)
(31.7711 9.79229 1.699e-18)
(33.7132 8.18472 -6.39233e-19)
(35.3448 5.94387 -9.59433e-18)
(36.1602 2.90954 4.2793e-19)
(35.6855 -0.0649183 0)
(34.1916 -2.00563 3.6709e-18)
(32.5223 -2.94343 6.25605e-19)
(31.195 -3.41047 5.19288e-18)
(30.2117 -3.68665 5.73491e-18)
(29.4422 -3.84014 1.17703e-18)
(28.8054 -3.93246 0)
(28.2773 -4.00688 -3.49054e-18)
(27.8186 -4.1113 -3.12387e-18)
(27.3388 -4.2608 -2.7549e-18)
(26.8143 -4.34286 0)
(26.3029 -4.33874 2.00592e-18)
(25.8427 -4.29913 0)
(25.4202 -4.247 0)
(25.0149 -4.18028 0)
(24.62 -4.09797 -6.21178e-19)
(24.2328 -4.00127 -6.59797e-19)
(23.8477 -3.88901 -8.39727e-21)
(23.461 -3.75646 5.85981e-19)
(23.0636 -3.59931 0)
(22.6648 -3.40244 -8.35057e-19)
(22.229 -3.16893 -2.47215e-18)
(21.8582 -2.8289 -1.44108e-18)
(21.3268 -2.48236 -2.48035e-20)
(15.2506 0.808012 0)
(15.6289 2.49676 1.24265e-18)
(16.2373 4.02233 -2.97414e-21)
(17.0274 5.40738 3.72928e-19)
(17.9957 6.63825 -3.03854e-18)
(19.1297 7.72233 -2.3714e-18)
(20.3917 8.63575 1.66545e-18)
(21.6939 9.3765 -1.01024e-18)
(23.1189 9.91946 -6.30595e-20)
(24.6313 10.2158 6.95316e-19)
(26.1288 10.2879 0)
(27.681 10.1328 -5.54181e-18)
(29.2753 9.70006 5.12411e-18)
(30.927 8.90885 -6.64113e-18)
(32.5839 7.63694 0)
(34.0606 5.88892 -2.44825e-18)
(35.0378 3.50768 7.22945e-18)
(35.0614 0.917007 -4.92701e-18)
(34.0978 -1.09985 0)
(32.7126 -2.28792 0)
(31.451 -2.93645 0)
(30.4658 -3.3246 -5.67592e-18)
(29.6877 -3.5586 2.50103e-19)
(29.0377 -3.70582 -1.48925e-18)
(28.4905 -3.8137 2.89507e-18)
(28.0138 -3.92487 1.20954e-18)
(27.5426 -4.05906 -1.20488e-18)
(27.0503 -4.14986 1.98608e-18)
(26.5666 -4.16997 2.89662e-20)
(26.1231 -4.14785 0)
(25.7166 -4.10639 -2.40039e-19)
(25.3314 -4.04832 2.4242e-19)
(24.9598 -3.97285 5.93216e-19)
(24.5988 -3.8807 2.92067e-19)
(24.2444 -3.77121 0)
(23.8934 -3.64042 -2.12202e-19)
(23.5403 -3.48425 0)
(23.1919 -3.29058 7.15384e-19)
(22.83 -3.06043 9.59012e-19)
(22.5194 -2.74764 2.27866e-18)
(22.1426 -2.41646 0)
(16.8172 0.67663 9.74252e-19)
(17.1441 2.11598 -2.58833e-18)
(17.6474 3.39774 -2.97459e-18)
(18.287 4.56081 5.69405e-18)
(19.0605 5.60584 0)
(19.9621 6.546 -1.62824e-18)
(20.9697 7.36986 1.36264e-18)
(22.0265 8.07459 -1.22366e-18)
(23.213 8.6473 -1.45558e-19)
(24.5318 9.01553 -7.25194e-19)
(25.8898 9.15311 8.43179e-19)
(27.2955 9.04021 2.87369e-18)
(28.6945 8.66702 -5.33574e-18)
(30.0993 8.01066 6.40891e-18)
(31.5047 7.02095 -3.44478e-18)
(32.8084 5.68587 4.88294e-18)
(33.8322 3.88349 -3.70697e-18)
(34.2186 1.75707 8.02433e-18)
(33.762 -0.170952 0)
(32.7491 -1.52602 0)
(31.6476 -2.35847 -3.21511e-18)
(30.7105 -2.87439 4.55913e-19)
(29.9472 -3.20031 3.09894e-18)
(29.298 -3.41416 2.63384e-18)
(28.7401 -3.56508 -3.50135e-18)
(28.2493 -3.69434 -9.82024e-19)
(27.7805 -3.82477 -8.63092e-19)
(27.3099 -3.92202 -1.49979e-18)
(26.8479 -3.96294 7.82816e-19)
(26.416 -3.95985 0)
(26.0172 -3.93104 2.04766e-19)
(25.6418 -3.88247 -3.58869e-19)
(25.2826 -3.81454 -3.31911e-19)
(24.9366 -3.72772 0)
(24.6009 -3.62172 0)
(24.2735 -3.49373 0)
(23.9515 -3.34041 0)
(23.6399 -3.15332 4.25142e-19)
(23.3315 -2.93179 0)
(23.0666 -2.6505 -8.49164e-19)
(22.7849 -2.34468 -2.64561e-20)
(18.2453 0.55943 0)
(18.5258 1.77685 0)
(18.9408 2.84401 -2.1444e-18)
(19.457 3.81024 0)
(20.073 4.68524 0)
(20.7868 5.4841 0)
(21.5857 6.20289 0)
(22.4336 6.83843 0)
(23.3994 7.38731 0)
(24.5062 7.77889 -8.96463e-19)
(25.6835 7.96434 7.18727e-19)
(26.9131 7.90923 -6.30904e-19)
(28.12 7.61852 2.02246e-18)
(29.3082 7.10076 2.82447e-18)
(30.4928 6.34862 -3.93035e-18)
(31.6209 5.35053 2.8922e-18)
(32.6049 4.02836 -8.31842e-21)
(33.2055 2.37978 -5.5303e-18)
(33.1667 0.682189 2.97214e-18)
(32.5569 -0.712178 -3.17304e-18)
(31.6995 -1.68684 0)
(30.8725 -2.33031 -2.53828e-18)
(30.1584 -2.7542 -4.6052e-18)
(29.5329 -3.04306 4.3258e-18)
(28.9818 -3.24645 -2.07834e-18)
(28.4896 -3.40528 1.63842e-18)
(28.0277 -3.54491 -1.6222e-18)
(27.5775 -3.65141 -6.19152e-19)
(27.1384 -3.71123 -1.04354e-18)
(26.7222 -3.72837 -4.40357e-19)
(26.3336 -3.71508 0)
(25.9683 -3.67835 0)
(25.6206 -3.62008 -4.6672e-19)
(25.2877 -3.54102 -2.56652e-19)
(24.9679 -3.4413 1.04214e-19)
(24.66 -3.31934 1.00334e-20)
(24.3628 -3.17285 0)
(24.0805 -2.99678 -2.99331e-19)
(23.8112 -2.7902 -4.60552e-20)
(23.5812 -2.5417 0)
(23.354 -2.27064 5.73998e-19)
(19.5239 0.456728 0)
(19.7633 1.4789 -1.86468e-18)
(20.1047 2.35948 3.61742e-18)
(20.5209 3.15369 0)
(21.011 3.87637 0)
(21.5748 4.54211 2.04513e-18)
(22.205 5.15106 3.0721e-18)
(22.8788 5.70043 -1.85738e-18)
(23.6507 6.1924 0)
(24.5507 6.56853 -1.53794e-20)
(25.531 6.77688 -9.87619e-19)
(26.5681 6.77666 -7.17035e-19)
(27.5853 6.57367 1.90594e-18)
(28.5786 6.18841 5.97393e-19)
(29.5671 5.63493 -2.64875e-18)
(30.5251 4.9073 1.02702e-18)
(31.4151 3.96311 -3.46494e-18)
(32.098 2.7478 3.95516e-18)
(32.3484 1.36421 1.05657e-18)
(32.1064 0.0649715 2.17682e-18)
(31.5412 -0.967264 0)
(30.8857 -1.70836 2.10448e-18)
(30.2635 -2.22274 -1.73098e-18)
(29.6912 -2.58744 3.69838e-18)
(29.1696 -2.84906 0)
(28.6937 -3.04687 2.80374e-18)
(28.2483 -3.20753 0)
(27.8214 -3.32911 1.0159e-18)
(27.4084 -3.40789 -1.0293e-18)
(27.014 -3.44591 7.95323e-19)
(26.6421 -3.45081 -2.96466e-19)
(26.2915 -3.42896 2.98485e-19)
(25.9591 -3.38338 2.12903e-19)
(25.6426 -3.31544 4.19006e-19)
(25.3408 -3.2258 -8.04925e-20)
(25.0536 -3.11406 -1.17155e-19)
(24.7808 -2.97923 0)
(24.5257 -2.81908 1.42284e-19)
(24.2884 -2.63353 3.9216e-20)
(24.0866 -2.41847 -3.91118e-20)
(23.8946 -2.18729 -4.66684e-19)
(20.649 0.36823 0)
(20.8521 1.2201 -3.36104e-18)
(21.1325 1.94022 6.0701e-18)
(21.468 2.58614 -2.2905e-18)
(21.8579 3.17514 1.79382e-18)
(22.3026 3.72001 -6.77209e-18)
(22.7978 4.22284 0)
(23.3292 4.68162 -1.12309e-18)
(23.9373 5.1011 0)
(24.6509 5.43702 0)
(25.4399 5.6447 -1.09289e-18)
(26.2846 5.68507 1.48216e-18)
(27.1191 5.56028 0)
(27.9345 5.29148 -1.2803e-18)
(28.7471 4.90008 0)
(29.5444 4.38534 -4.30529e-18)
(30.3132 3.72804 4.88704e-18)
(30.9823 2.86856 6.68663e-19)
(31.3878 1.81476 -9.15791e-19)
(31.4255 0.710231 -1.85667e-18)
(31.1463 -0.277099 -1.57762e-18)
(30.7009 -1.05485 0)
(30.2118 -1.63082 -2.98154e-18)
(29.7257 -2.05875 1.33949e-18)
(29.2605 -2.3759 1.22955e-18)
(28.8223 -2.61657 -1.23613e-19)
(28.4077 -2.80626 -3.10894e-18)
(28.0113 -2.94919 0)
(27.6289 -3.04877 7.69763e-19)
(27.2623 -3.10836 -6.06918e-19)
(26.914 -3.13345 6.11115e-19)
(26.5845 -3.12938 -8.57026e-19)
(26.2723 -3.09972 4.00792e-19)
(25.9764 -3.04657 1.64674e-19)
(25.6963 -2.97125 4.47017e-20)
(25.4321 -2.87441 1.09701e-19)
(25.1844 -2.75632 0)
(24.9557 -2.61676 -1.67976e-19)
(24.7466 -2.4568 0)
(24.5687 -2.27566 0)
(24.4032 -2.08479 0)
(21.6228 0.293249 0)
(21.7941 0.997584 1.02315e-18)
(22.0239 1.5811 -4.39729e-18)
(22.294 2.10084 3.2829e-18)
(22.6041 2.57479 1.53021e-18)
(22.9544 3.01342 -8.58077e-19)
(23.3423 3.41954 5.29763e-18)
(23.7585 3.79195 -6.26216e-18)
(24.2322 4.13611 4.28704e-18)
(24.7871 4.42029 -2.42397e-18)
(25.405 4.61033 5.8918e-19)
(26.0723 4.67368 -1.91087e-18)
(26.7381 4.60926 1.90851e-18)
(27.3928 4.43418 2.44556e-18)
(28.0477 4.16955 -2.22297e-18)
(28.6965 3.81731 -2.36817e-19)
(29.3363 3.37176 0)
(29.9344 2.78385 -5.91694e-19)
(30.3859 2.02437 4.70264e-18)
(30.5933 1.15747 -4.79353e-18)
(30.5434 0.299851 1.3425e-18)
(30.3066 -0.440239 0)
(29.9742 -1.02924 1.74438e-18)
(29.6018 -1.49124 -1.62153e-18)
(29.219 -1.84844 8.54051e-19)
(28.8413 -2.12618 -9.66547e-19)
(28.4747 -2.34572 8.1018e-19)
(28.1199 -2.51299 6.95096e-19)
(27.7756 -2.63497 -6.30874e-19)
(27.4435 -2.71671 -9.98573e-19)
(27.1257 -2.76319 1.0036e-18)
(26.8236 -2.77915 -1.09791e-20)
(26.5371 -2.76834 3.12011e-19)
(26.2662 -2.73343 -2.1826e-19)
(26.0109 -2.67642 0)
(25.7719 -2.5988 3.50851e-20)
(25.5498 -2.50188 -8.87828e-20)
(25.3464 -2.38672 2.82848e-20)
(25.1623 -2.25525 4.07242e-20)
(25.0045 -2.10804 -2.13406e-20)
(24.8603 -1.95537 -1.11792e-19)
(22.4523 0.23092 -1.57288e-18)
(22.5957 0.808241 -1.03693e-18)
(22.7832 1.2766 -2.21663e-18)
(23.0002 1.69038 2.59843e-18)
(23.2465 2.06711 3.63812e-18)
(23.522 2.41492 -1.68779e-18)
(23.8248 2.73668 -2.84186e-18)
(24.149 3.03194 0)
(24.5148 3.30584 -2.03467e-18)
(24.9401 3.53647 9.65827e-19)
(25.4139 3.69967 5.31458e-19)
(25.9279 3.77078 1.08242e-18)
(26.4458 3.74721 -2.955e-18)
(26.9592 3.64124 2.58065e-18)
(27.4754 3.47053 0)
(27.9907 3.23778 -6.20468e-19)
(28.5056 2.94391 5.25742e-18)
(29.0076 2.55259 -5.10262e-18)
(29.434 2.02792 -1.74392e-19)
(29.7128 1.3903 6.87033e-18)
(29.81 0.70581 -7.34487e-18)
(29.7421 0.0646672 0)
(29.5605 -0.483528 -8.49371e-19)
(29.3123 -0.939199 4.26232e-19)
(29.0286 -1.30883 0)
(28.7296 -1.60666 0)
(28.4273 -1.84725 -2.34275e-18)
(28.1269 -2.03522 1.78684e-18)
(27.8301 -2.17778 -9.29168e-19)
(27.5402 -2.28041 9.32966e-19)
(27.2601 -2.34793 3.70232e-19)
(26.9919 -2.38469 8.91593e-19)
(26.7366 -2.39442 -1.30235e-18)
(26.4949 -2.38015 3.62386e-19)
(26.2676 -2.34435 -5.139e-20)
(26.0554 -2.28911 1.34792e-19)
(25.859 -2.21637 1.3868e-19)
(25.6799 -2.12796 -3.63364e-20)
(25.5181 -2.02616 -2.62772e-20)
(25.3779 -1.91208 1.10445e-20)
(25.2511 -1.79465 4.87569e-20)
(23.1469 0.180145 0)
(23.2656 0.648992 -5.59417e-19)
(23.4179 1.02134 -7.84108e-19)
(23.5918 1.3474 6.06889e-18)
(23.787 1.64343 -4.04081e-18)
(24.0033 1.91548 -1.05166e-18)
(24.2391 2.16618 1.99212e-18)
(24.4905 2.39565 0)
(24.7712 2.60831 6.5322e-19)
(25.0938 2.78944 -5.94904e-19)
(25.4518 2.92287 6.83731e-19)
(25.8402 2.99117 -9.42401e-19)
(26.2344 2.99156 1.54783e-18)
(26.6282 2.93235 3.30716e-18)
(27.0261 2.82694 -2.96503e-18)
(27.4255 2.67778 -2.89108e-18)
(27.8276 2.48863 2.86516e-18)
(28.2291 2.23392 -3.89986e-22)
(28.5945 1.88277 -4.19611e-18)
(28.8765 1.4366 4.35388e-18)
(29.0429 0.927153 5.04897e-18)
(29.0845 0.416277 -4.88027e-18)
(29.022 -0.0499634 3.33289e-19)
(28.8863 -0.460087 0)
(28.7022 -0.809587 0)
(28.489 -1.10281 0)
(28.2607 -1.34715 0)
(28.0243 -1.54454 0)
(27.7838 -1.70025 0)
(27.5437 -1.81869 0)
(27.3082 -1.90394 -3.04086e-19)
(27.08 -1.95977 9.53487e-19)
(26.8611 -1.9896 -5.52885e-19)
(26.6528 -1.99643 -3.11358e-19)
(26.4563 -1.98288 -6.82063e-20)
(26.2726 -1.95132 0)
(26.1026 -1.90394 1.14166e-20)
(25.947 -1.84285 8.71244e-21)
(25.8062 -1.77033 -4.53155e-20)
(25.6823 -1.68765 9.84502e-22)
(25.5706 -1.6023 3.23055e-20)
(23.7179 0.139414 -6.94306e-19)
(23.8149 0.516461 -2.58118e-18)
(23.9379 0.809516 -3.45427e-19)
(24.0767 1.06416 3.14839e-18)
(24.2311 1.29454 4.48739e-18)
(24.4004 1.50496 4.71626e-19)
(24.5836 1.69772 -3.6483e-18)
(24.7778 1.87331 1.94038e-18)
(24.9923 2.0353 -2.27493e-18)
(25.2355 2.17401 4.38821e-19)
(25.5033 2.27904 -7.18627e-19)
(25.7929 2.33869 -5.60103e-20)
(26.0882 2.3507 7.88851e-19)
(26.3847 2.32054 -1.66072e-18)
(26.6854 2.2578 2.38376e-18)
(26.9882 2.16438 -2.46683e-18)
(27.2942 2.04435 4.60237e-18)
(27.6038 1.8806 -9.27386e-18)
(27.8973 1.65004 4.97215e-18)
(28.1457 1.34809 -6.16284e-18)
(28.3254 0.987989 6.25963e-18)
(28.4203 0.607442 0)
(28.4338 0.240795 0)
(28.3824 -0.0983437 0)
(28.2822 -0.400946 8.8738e-20)
(28.148 -0.6651 -2.83432e-18)
(27.9922 -0.892669 2.65707e-18)
(27.8217 -1.08318 1.46754e-19)
(27.6409 -1.23937 0)
(27.4551 -1.36382 -9.81884e-19)
(27.2686 -1.4593 9.79988e-19)
(27.085 -1.52864 9.80132e-20)
(26.9064 -1.5746 -8.59534e-20)
(26.7349 -1.59975 -5.55062e-19)
(26.5718 -1.60649 6.15841e-19)
(26.4184 -1.59705 0)
(26.2755 -1.57355 -3.67035e-20)
(26.1439 -1.538 6.23939e-21)
(26.0238 -1.49246 7.9651e-20)
(25.9165 -1.43812 -1.11797e-20)
(25.8193 -1.38099 1.14508e-20)
(24.1618 0.108813 6.10334e-19)
(24.241 0.411914 0)
(24.3403 0.642615 -1.96784e-19)
(24.4516 0.842276 1.35197e-18)
(24.5744 1.02228 1.28089e-18)
(24.708 1.18553 -2.42782e-18)
(24.8513 1.33407 0)
(25.0026 1.46867 7.28192e-19)
(25.1679 1.592 3.43815e-19)
(25.3527 1.69773 3.67039e-19)
(25.5545 1.7792 9.04173e-20)
(25.7714 1.82867 6.76901e-19)
(25.9931 1.84459 -6.63108e-19)
(26.2164 1.83064 -1.22252e-18)
(26.4432 1.79364 -8.45025e-19)
(26.672 1.73499 -8.3677e-19)
(26.9037 1.65822 -8.93401e-19)
(27.139 1.55157 2.97171e-18)
(27.3671 1.39882 0)
(27.5706 1.19468 4.49761e-18)
(27.7338 0.94417 -4.28903e-18)
(27.8418 0.669445 -4.81844e-18)
(27.8914 0.393731 4.79037e-18)
(27.8903 0.128316 0)
(27.8474 -0.117723 -8.15556e-20)
(27.7725 -0.339955 0)
(27.675 -0.5372 1.44979e-19)
(27.5607 -0.707715 -2.04577e-18)
(27.4334 -0.85233 1.90461e-18)
(27.2976 -0.972031 1.60454e-18)
(27.1576 -1.0683 -1.59635e-18)
(27.0168 -1.14295 -8.89615e-20)
(26.8777 -1.19792 4.16896e-20)
(26.7422 -1.23516 0)
(26.6119 -1.2566 -5.70211e-20)
(26.4881 -1.26409 0)
(26.3717 -1.25943 -1.48884e-19)
(26.2634 -1.24432 -3.76222e-21)
(26.1636 -1.22047 9.68762e-20)
(26.0729 -1.1889 0)
(25.9901 -1.15423 0)
(24.4921 0.0865445 -1.47018e-18)
(24.5577 0.33279 1.39417e-18)
(24.6388 0.516777 4.15823e-19)
(24.7292 0.675621 -1.23235e-18)
(24.8285 0.818273 2.16505e-19)
(24.9355 0.94671 0)
(25.0498 1.06276 -2.60946e-18)
(25.1697 1.1673 1.95522e-18)
(25.2995 1.26234 4.15491e-19)
(25.4429 1.34366 -6.24877e-19)
(25.598 1.4069 2.42945e-19)
(25.7637 1.44689 -2.25755e-19)
(25.9329 1.46263 1.23712e-18)
(26.1035 1.45664 -1.06136e-18)
(26.2769 1.43384 3.2678e-19)
(26.4516 1.39529 -3.2942e-19)
(26.6284 1.34396 4.56981e-18)
(26.8082 1.27175 -1.59338e-18)
(26.9846 1.16735 -5.35233e-18)
(27.1467 1.02634 2.7343e-18)
(27.2844 0.850407 -6.00455e-20)
(27.3861 0.652806 0)
(27.447 0.448797 -3.60596e-18)
(27.4703 0.246554 3.57608e-18)
(27.4607 0.05348 3.45381e-18)
(27.4242 -0.125749 -3.47891e-18)
(27.3674 -0.288798 1.59725e-18)
(27.2945 -0.43358 -1.59778e-18)
(27.2085 -0.559865 0)
(27.1129 -0.667638 -1.30465e-18)
(27.0114 -0.757455 1.30375e-18)
(26.907 -0.830302 1.079e-18)
(26.8019 -0.887406 -1.52928e-18)
(26.6979 -0.930118 4.8062e-19)
(26.5966 -0.959839 6.06333e-21)
(26.4992 -0.977979 3.28242e-19)
(26.4066 -0.985935 -4.71324e-19)
(26.3194 -0.985048 1.41758e-19)
(26.2381 -0.976665 5.12375e-20)
(26.1631 -0.961602 -2.96196e-20)
(26.0941 -0.943273 -2.59777e-20)
(24.742 0.0699277 0)
(24.7969 0.271873 -4.47811e-19)
(24.8638 0.420397 -1.08376e-19)
(24.9382 0.548388 -1.67e-18)
(25.0194 0.662875 8.02166e-19)
(25.1066 0.765232 2.31591e-18)
(25.199 0.857077 -4.26048e-18)
(25.2956 0.93931 1.971e-18)
(25.3993 1.01347 4.52463e-19)
(25.5126 1.07667 -1.59581e-18)
(25.634 1.12605 5.90853e-19)
(25.7628 1.15807 2.62004e-19)
(25.8942 1.17213 -1.62459e-19)
(26.0266 1.17001 1.51174e-19)
(26.1609 1.15531 -1.82172e-18)
(26.296 1.12882 2.40161e-18)
(26.4323 1.09291 2.80852e-18)
(26.5707 1.04201 -6.54062e-18)
(26.7072 0.968258 5.62419e-18)
(26.8349 0.868304 -2.04611e-18)
(26.9472 0.742579 -2.47887e-18)
(27.0354 0.59934 5.19968e-18)
(27.0951 0.448658 8.94176e-20)
(27.1276 0.296159 -2.55938e-18)
(27.1353 0.147357 4.68639e-20)
(27.1216 0.00625704 -7.37773e-20)
(27.0912 -0.124703 -2.49506e-20)
(27.0468 -0.243536 1.18224e-18)
(26.9906 -0.34957 -2.28547e-18)
(26.9252 -0.442318 1.1041e-18)
(26.8536 -0.5218 -8.44853e-21)
(26.7781 -0.588449 -1.34074e-20)
(26.7006 -0.642962 7.00536e-21)
(26.6227 -0.686199 -3.53402e-19)
(26.5457 -0.719118 3.5608e-19)
(26.4707 -0.742722 3.04107e-19)
(26.3985 -0.758037 -2.90014e-19)
(26.3298 -0.766061 0)
(26.2649 -0.767807 0)
(26.2043 -0.763905 1.14944e-20)
(26.1479 -0.75679 4.64358e-21)
(24.9345 0.05721 0)
(24.9807 0.224108 2.12357e-18)
(25.0364 0.345265 2.48803e-18)
(25.0981 0.449518 -2.48748e-18)
(25.1654 0.542393 1.99792e-18)
(25.2371 0.624868 -1.99544e-18)
(25.3128 0.698374 -7.36458e-19)
(25.3916 0.763771 1.19862e-18)
(25.4756 0.822254 -4.21696e-19)
(25.5664 0.871841 0)
(25.6629 0.910601 1.02057e-19)
(25.7646 0.93611 0)
(25.868 0.948006 4.38313e-19)
(25.9722 0.947607 -5.47037e-19)
(26.0775 0.937564 0)
(26.1832 0.918502 -2.21324e-19)
(26.2894 0.892276 0)
(26.3968 0.855007 2.2858e-18)
(26.5028 0.801233 -2.57866e-18)
(26.603 0.728549 0)
(26.6929 0.636964 0)
(26.7664 0.531863 -1.32984e-19)
(26.8198 0.420018 -1.8529e-18)
(26.8536 0.305243 1.87092e-18)
(26.8689 0.191487 -1.97514e-18)
(26.8679 0.0818997 2.02949e-18)
(26.8536 -0.0213857 3.36097e-20)
(26.828 -0.116738 0)
(26.7924 -0.203393 0)
(26.7487 -0.280708 -8.18155e-19)
(26.6992 -0.348447 7.6502e-19)
(26.6457 -0.406724 1.24878e-20)
(26.5897 -0.455891 0)
(26.5324 -0.496464 2.62956e-20)
(26.475 -0.529063 0)
(26.4183 -0.55437 -8.58243e-21)
(26.363 -0.573105 -2.25954e-19)
(26.3098 -0.585984 1.48128e-19)
(26.259 -0.593742 7.74691e-20)
(26.2109 -0.596852 -1.06525e-20)
(26.1657 -0.596974 -9.25627e-21)
(25.0852 0.0472851 -5.47133e-19)
(25.1243 0.18609 -2.98262e-19)
(25.1709 0.285797 -1.44904e-18)
(25.2226 0.371478 0)
(25.2787 0.447492 0)
(25.3383 0.514555 0)
(25.4009 0.57393 6.81191e-19)
(25.4659 0.626414 -2.28773e-18)
(25.5346 0.672949 1.06442e-18)
(25.6082 0.71216 1.34365e-18)
(25.686 0.742742 -4.18528e-19)
(25.7673 0.763015 1.19958e-19)
(25.8497 0.772789 -1.20367e-19)
(25.9325 0.77305 6.72189e-19)
(26.016 0.765781 -6.83116e-19)
(26.0995 0.751481 0)
(26.1831 0.731598 1.4304e-18)
(26.2671 0.703412 -1.47281e-18)
(26.35 0.66311 -2.17379e-18)
(26.4286 0.609011 4.58875e-18)
(26.5002 0.541025 5.18365e-19)
(26.56 0.462829 -4.01667e-18)
(26.6055 0.379095 -1.66545e-19)
(26.6368 0.292419 2.91047e-18)
(26.6545 0.20559 -1.46045e-18)
(26.6599 0.120977 0)
(26.655 0.0402976 8.2491e-20)
(26.6412 -0.0351933 0)
(26.6193 -0.1048 -7.78913e-20)
(26.5907 -0.1679 0)
(26.557 -0.224173 4.2486e-20)
(26.5197 -0.273576 6.72532e-20)
(26.4797 -0.316258 5.2893e-19)
(26.4382 -0.352511 -5.58219e-19)
(26.3959 -0.38272 0)
(26.3537 -0.407335 0)
(26.312 -0.426846 -2.35525e-20)
(26.2714 -0.441752 6.36215e-20)
(26.2322 -0.452572 -1.447e-19)
(26.1947 -0.459658 7.88068e-20)
(26.1592 -0.464086 2.4979e-20)
(25.2047 0.0394179 -3.63164e-19)
(25.2379 0.155476 8.36485e-19)
(25.2772 0.238155 -1.27925e-18)
(25.3207 0.309113 1.66477e-19)
(25.3678 0.371802 0)
(25.4177 0.426763 1.00274e-18)
(25.4699 0.475107 -2.0144e-18)
(25.5239 0.517558 7.54746e-20)
(25.5807 0.554871 6.85491e-19)
(25.641 0.586086 -1.26553e-18)
(25.7043 0.610324 0)
(25.77 0.626414 1.18688e-20)
(25.8364 0.634278 0)
(25.9029 0.634673 0)
(25.9697 0.629095 0)
(26.0362 0.617954 0)
(26.1025 0.602379 1.33045e-18)
(26.1688 0.580455 -1.18175e-18)
(26.234 0.549508 0)
(26.2959 0.508387 0)
(26.3527 0.457015 1.47022e-18)
(26.4009 0.39801 -1.93144e-18)
(26.4387 0.334676 2.03239e-18)
(26.4662 0.268803 -2.13007e-18)
(26.4835 0.202359 0)
(26.4916 0.137093 9.79397e-19)
(26.4919 0.0743295 -2.32789e-18)
(26.4852 0.0149995 1.07989e-18)
(26.4721 -0.0403274 1.31244e-20)
(26.4538 -0.0911185 0)
(26.4312 -0.137062 -5.51641e-20)
(26.4053 -0.178049 -1.01412e-20)
(26.3771 -0.214125 0)
(26.3473 -0.245445 -4.70387e-20)
(26.3166 -0.272242 0)
(26.2854 -0.294808 0)
(26.2544 -0.31347 2.19315e-20)
(26.2238 -0.32857 -3.5896e-20)
(26.1939 -0.340469 6.77794e-20)
(26.1651 -0.349424 -5.17035e-21)
(26.1374 -0.356099 -4.57886e-20)
(25.3005 0.0330998 0)
(25.3287 0.130579 0)
(25.362 0.199591 1.17803e-18)
(25.3988 0.258742 6.10758e-20)
(25.4387 0.310778 0)
(25.4807 0.356123 9.14417e-19)
(25.5245 0.395754 6.3896e-19)
(25.5697 0.430317 -1.5461e-18)
(25.617 0.460427 3.57211e-19)
(25.6669 0.485419 -6.43555e-19)
(25.7188 0.5047 -8.23657e-20)
(25.7724 0.517457 -1.1084e-20)
(25.8263 0.523685 0)
(25.8802 0.523976 -1.32548e-19)
(25.934 0.519472 0)
(25.9875 0.510514 0)
(26.0405 0.497987 -1.0606e-18)
(26.0932 0.480538 8.81453e-19)
(26.1448 0.456287 0)
(26.1937 0.424461 0)
(26.2388 0.38502 -1.40572e-18)
(26.2775 0.339895 2.97306e-18)
(26.3084 0.291475 -3.01588e-18)
(26.3317 0.241018 1.49613e-18)
(26.3475 0.18992 0)
(26.3563 0.139463 2.11359e-19)
(26.3591 0.0906481 1.52404e-19)
(26.3567 0.0441501 0)
(26.3493 0.00041155 -7.32966e-19)
(26.3376 -0.040142 8.68911e-19)
(26.3226 -0.0772421 1.36706e-19)
(26.3049 -0.110769 -4.90446e-20)
(26.2851 -0.140717 -3.90424e-20)
(26.2638 -0.167164 4.38592e-20)
(26.2416 -0.19025 0)
(26.2188 -0.210163 3.31678e-20)
(26.1958 -0.227119 0)
(26.173 -0.241351 1.84065e-19)
(26.1504 -0.253107 -1.20175e-19)
(26.1284 -0.262576 -2.41037e-21)
(26.1072 -0.270138 -2.57339e-20)
(25.3779 0.0279695 4.73514e-19)
(25.4021 0.110166 2.16279e-19)
(25.4303 0.168103 -1.17543e-18)
(25.4616 0.217692 3.16857e-18)
(25.4955 0.261128 -1.51854e-18)
(25.5311 0.298757 5.9031e-19)
(25.5681 0.331435 6.09175e-19)
(25.6062 0.359737 5.12418e-19)
(25.6458 0.384169 3.99764e-19)
(25.6873 0.404272 2.50476e-19)
(25.7302 0.419657 -1.85902e-19)
(25.7743 0.429759 -1.02083e-20)
(25.8185 0.434621 -4.47167e-20)
(25.8624 0.434715 7.83907e-19)
(25.9061 0.430923 -5.68365e-19)
(25.9494 0.423531 1.06126e-18)
(25.992 0.413238 -9.11775e-19)
(26.0342 0.399086 0)
(26.0752 0.379756 9.50489e-20)
(26.1142 0.354733 -9.92718e-19)
(26.15 0.324019 1.01257e-18)
(26.181 0.289077 -8.9683e-19)
(26.2061 0.251669 2.20602e-18)
(26.2255 0.212692 -1.10334e-18)
(26.2393 0.173147 0)
(26.2478 0.133975 -8.80269e-20)
(26.2517 0.0959226 -8.78913e-20)
(26.2516 0.059475 0)
(26.2477 0.0249654 -6.03226e-19)
(26.2405 -0.00727936 5.82448e-19)
(26.2305 -0.0370439 -7.95102e-20)
(26.2184 -0.0642198 0)
(26.2046 -0.088782 3.6412e-20)
(26.1895 -0.110768 -5.82249e-20)