/*--------------------------------*- C++ -*----------------------------------*\
  =========                 |
  \\      /  F ield         | OpenFOAM: The Open Source CFD Toolbox
   \\    /   O peration     | Website:  https://openfoam.org
    \\  /    A nd           | Version:  11
     \\/     M anipulation  |
\*---------------------------------------------------------------------------*/
FoamFile
{
    format      ascii;
    class       volScalarField;
    location    "350";
    object      p;
}
// * * * * * * * * * * * * * * * * * * * * * * * * * * * * * * * * * * * * * //

dimensions      [0 2 -2 0 0 0 0];

internalField   nonuniform List<scalar> 
11040
(
376.433
356.385
309.006
237.106
153.078
46.2044
-61.24
-135.96
-127.902
-118.571
-147.088
-204.915
-338.823
-506.961
-652.74
-665.293
-592.27
-386.142
-254.326
-206.475
-180.501
-156.099
-135.736
-120.369
-109.184
-102.768
-90.3761
-67.7571
-53.6369
-43.2733
-33.0269
-22.898
-13.2363
-3.90184
5.36629
14.756
24.376
34.6127
45.2871
58.4036
69.2469
369.266
349.807
307.422
244.872
169.675
77.3121
-16.9711
-86.137
-103.708
-109.233
-141.363
-199.483
-317.438
-463.091
-590.19
-613.337
-566.673
-394.976
-264.97
-211.509
-183.036
-157.991
-137.199
-121.434
-109.789
-102.652
-90.4668
-68.856
-54.5204
-43.9471
-33.6427
-23.4775
-13.776
-4.41072
4.87394
14.27
23.883
34.1056
44.6942
57.8416
68.0974
357.144
339.06
301.271
245.896
177.542
95.3677
9.53117
-59.6779
-94.0762
-109.017
-139.791
-194.757
-296.777
-423.957
-539.67
-574.045
-542.772
-401.563
-273.327
-214.057
-184.162
-159.163
-138.15
-122.05
-109.97
-102.124
-90.3544
-69.8872
-55.1398
-44.3372
-34.0338
-23.8639
-14.1386
-4.75834
4.527
13.9151
23.5056
33.69
44.1685
57.2105
66.8313
341.42
324.659
291.107
242.757
182.26
110.429
34.0703
-31.8261
-76.149
-100.375
-132.6
-185.849
-274.637
-384.395
-488.242
-532.091
-516.653
-403.111
-281.373
-217.431
-185.684
-160.581
-139.289
-122.785
-110.232
-101.577
-90.1196
-70.9224
-55.8944
-44.8611
-34.5594
-24.3868
-14.6361
-5.24241
4.03746
13.4059
22.9555
33.0674
43.3932
56.1568
65.1404
322.389
306.916
277.501
235.939
183.522
121.593
54.7543
-5.98288
-55.7898
-89.3569
-124.253
-175.273
-251.677
-344.432
-434.885
-483.401
-483.471
-399.438
-289.538
-222.056
-187.567
-162.155
-140.618
-123.642
-110.547
-100.983
-89.7152
-71.9632
-56.8625
-45.5429
-35.2139
-25.0512
-15.2839
-5.88459
3.37485
12.6989
22.1724
32.1505
42.2488
54.5072
62.8239
300.413
286.235
260.777
225.544
181.019
128.473
70.9521
16.3644
-34.6559
-75.051
-112.734
-161.37
-226.952
-304.403
-381.734
-431.988
-445.149
-389.9
-295.982
-227.154
-189.578
-163.715
-142.058
-124.603
-110.924
-100.424
-89.1954
-72.9347
-57.9963
-46.3764
-35.998
-25.8695
-16.1056
-6.71502
2.50191
11.7469
21.0967
30.8625
40.6428
52.159
59.87
276.072
263.186
241.409
211.914
174.755
130.867
82.2125
34.3338
-14.4023
-58.2014
-98.1384
-144.502
-200.896
-265.106
-330.175
-379.452
-402.328
-372.875
-298.539
-232.042
-191.751
-165.195
-143.508
-125.624
-111.345
-99.9612
-88.6351
-73.7557
-59.235
-47.3825
-36.9359
-26.8638
-17.135
-7.77883
1.3642
10.4839
19.648
29.1062
38.4661
49.0291
56.2222
250.066
238.449
220.007
195.59
165.038
128.926
88.4755
47.4498
3.3438
-40.3592
-81.0777
-125.032
-173.74
-226.913
-281.084
-327.066
-355.764
-347.577
-295.025
-235.399
-193.803
-166.424
-144.784
-126.617
-111.782
-99.623
-88.1015
-74.3723
-60.481
-48.5396
-38.0271
-28.0328
-18.3852
-9.10462
-0.0782394
8.85808
17.7616
26.8087
35.6444
45.1143
51.828
223.164
212.767
197.277
177.252
152.427
123.098
90.0026
55.6136
17.375
-23.3354
-62.793
-103.835
-146.109
-190.314
-235.23
-276.509
-307.402
-314.745
-283.645
-235.209
-194.923
-167.076
-145.602
-127.399
-112.155
-99.3777
-87.6299
-74.7781
-61.638
-49.8002
-39.2657
-29.3697
-19.8537
-10.7038
-1.84926
6.8366
15.3991
23.9403
32.1627
40.5078
46.702
196.143
186.901
173.972
157.666
137.668
114.1
87.4007
59.1537
27.1261
-8.71041
-44.9243
-82.2465
-118.933
-155.896
-193.165
-229.186
-259.464
-276.316
-263.684
-229.298
-193.744
-166.578
-145.557
-127.646
-112.268
-99.1027
-87.1857
-74.9826
-62.6228
-51.0906
-40.6353
-30.8756
-21.5473
-12.5966
-3.97982
4.38732
12.5339
20.4992
28.0472
35.339
40.9404
169.741
161.58
150.838
137.628
121.613
102.828
81.5393
58.7449
32.6512
2.51516
-29.0509
-61.8226
-93.3642
-124.339
-155.294
-186.067
-213.909
-235.047
-236.048
-216.138
-188.491
-163.944
-144.052
-126.892
-111.797
-98.573
-86.6457
-74.9618
-63.3509
-52.297
-42.075
-32.5322
-23.4645
-14.7955
-6.49447
1.4835
9.14777
16.4942
23.3422
29.7098
34.6954
144.615
137.458
128.568
117.902
105.124
90.2396
73.4213
55.2945
34.4962
10.0535
-16.2469
-43.9358
-70.5385
-96.3447
-121.968
-147.796
-172.255
-193.911
-203.204
-195.677
-177.632
-157.86
-140.235
-124.489
-110.238
-97.4128
-85.7573
-74.6062
-63.7226
-53.279
-43.4683
-34.267
-25.5563
-17.2664
-9.37367
-1.86165
5.26194
11.9713
18.1319
23.7153
28.1418
121.302
115.078
107.747
99.1567
88.9866
77.2439
64.0507
49.8009
33.502
14.2216
-6.89251
-29.434
-51.294
-72.4793
-93.4726
-114.764
-135.499
-155.425
-168.431
-169.63
-160.777
-147.212
-133.138
-119.655
-106.928
-95.0772
-84.1069
-73.6652
-63.5677
-53.8557
-44.6371
-35.9375
-27.7095
-19.9099
-12.5249
-5.55504
0.981491
7.05279
12.564
17.4875
21.4512
100.183
94.8257
88.808
81.9103
73.8347
64.6037
54.3121
43.2099
30.5993
15.706
-0.757532
-18.5203
-35.9804
-53.0053
-69.9098
-87.1116
-104.153
-121.279
-134.824
-140.907
-139.141
-131.833
-122.135
-111.701
-101.183
-90.9269
-81.1433
-71.7282
-62.5923
-53.7678
-45.3271
-37.3104
-29.7155
-22.5308
-15.7561
-9.40173
-3.48975
1.95106
6.85864
11.2188
14.8023
81.4769
76.9243
72.0159
66.4978
60.1042
52.8735
44.8841
36.296
26.6327
15.3044
2.74752
-10.8807
-24.4544
-37.8098
-51.1296
-64.7178
-78.3134
-92.3204
-104.612
-112.538
-115.131
-112.855
-107.469
-100.442
-92.604
-84.4487
-76.3277
-68.3116
-60.4007
-52.6717
-45.2083
-38.0648
-31.2671
-24.8299
-18.7682
-13.0997
-7.84633
-3.03108
1.30835
5.16835
8.41592
65.3293
61.5168
57.5394
53.1386
48.0887
42.4406
36.2597
29.6489
22.2915
13.7645
4.33684
-5.90745
-16.2167
-26.4488
-36.7048
-47.1851
-57.7307
-68.7391
-78.9999
-86.84
-91.388
-92.3327
-90.3732
-86.48
-81.3658
-75.5278
-69.3623
-63.0363
-56.6059
-50.1909
-43.9032
-37.8163
-31.9766
-26.4186
-21.1708
-16.2574
-11.7006
-7.51901
-3.73541
-0.348874
2.56724
51.8159
48.6741
45.4783
41.9797
38.0007
33.6001
28.8305
23.7577
18.1754
11.7956
4.78568
-2.81064
-10.5069
-18.197
-25.935
-33.8446
-41.8283
-50.2078
-58.3046
-65.1059
-69.9973
-72.4935
-72.7226
-71.1996
-68.398
-64.7082
-60.4847
-55.9184
-51.0819
-46.11
-41.1301
-36.2297
-31.4686
-26.8934
-22.5418
-18.4435
-14.6216
-11.0934
-7.87431
-4.96377
-2.40153
41.225
38.6239
36.0609
33.2609
30.096
26.6319
22.9093
18.9716
14.6831
9.85145
4.58518
-1.09291
-6.86661
-12.6613
-18.5043
-24.4672
-30.481
-36.7811
-42.9867
-48.4866
-52.8848
-55.7567
-57.0172
-56.9033
-55.6817
-53.6107
-50.9615
-47.9022
-44.4955
-40.8632
-37.1272
-33.3756
-29.6713
-26.0646
-22.5966
-19.2992
-16.1965
-13.306
-10.6409
-8.20367
-6.01703
33.1743
31
28.9206
26.6455
24.0866
21.312
18.3528
15.2384
11.8782
8.14202
4.10435
-0.221481
-4.62396
-9.05059
-13.5151
-18.0587
-22.6335
-27.4022
-32.1407
-36.4723
-40.1459
-42.8394
-44.4204
-44.9896
-44.685
-43.662
-42.1115
-40.1645
-37.8658
-35.313
-32.6091
-29.832
-27.0396
-24.2793
-21.5907
-19.0046
-16.5448
-14.2282
-12.0677
-10.0681
-8.24486
27.0008
25.1735
23.4679
21.5963
19.4998
17.2447
14.8548
12.3509
9.67119
6.72695
3.57141
0.213646
-3.20082
-6.63446
-10.0935
-13.6013
-17.1224
-20.7691
-24.4041
-27.7866
-30.7561
-33.0789
-34.6332
-35.4601
-35.6281
-35.2272
-34.3861
-33.2013
-31.7004
-29.9561
-28.0495
-26.0443
-23.9891
-21.9249
-19.8863
-17.9009
-15.9903
-14.1706
-12.4535
-10.8458
-9.3588
22.1896
20.648
19.236
17.6806
15.9446
14.0898
12.135
10.0951
7.92772
5.57191
3.06701
0.420129
-2.26608
-4.96418
-7.67638
-10.4155
-13.1548
-15.9716
-18.7777
-21.4156
-23.7805
-25.7047
-27.0916
-27.9576
-28.3367
-28.2806
-27.8751
-27.1885
-26.2367
-25.0719
-23.755
-22.3353
-20.8512
-19.3361
-17.8183
-16.3213
-14.8634
-13.4589
-12.1186
-10.8496
-9.66078
18.3907
17.0865
15.9087
14.6055
13.1556
11.6156
9.99998
8.32019
6.547
4.63826
2.62388
0.509938
-1.62959
-3.77421
-5.92395
-8.08541
-10.2379
-12.4346
-14.617
-16.6789
-18.5509
-20.1127
-21.2921
-22.0963
-22.5425
-22.6613
-22.5098
-22.1362
-21.5492
-20.7856
-19.89
-18.8991
-17.8423
-16.7456
-15.6313
-14.5182
-13.4217
-12.3536
-11.3232
-10.3373
-9.40321
15.3571
14.251
13.2621
12.1629
10.9433
9.6542
8.30744
6.91177
5.44714
3.88443
2.24687
0.539916
-1.18216
-2.90374
-4.62368
-6.3449
-8.05126
-9.77947
-11.4892
-13.1076
-14.5876
-15.8426
-16.8203
-17.5247
-17.9652
-18.1604
-18.1495
-17.9663
-17.6157
-17.1234
-16.5217
-15.8373
-15.0925
-14.3066
-13.4969
-12.6783
-11.8626
-11.0597
-10.2772
-9.52113
-8.7976
12.9111
11.9711
11.136
10.2035
9.17142
8.08509
6.9542
5.78583
4.56634
3.27568
1.9322
0.540905
-0.857759
-2.25171
-3.63922
-5.02108
-6.3846
-7.75511
-9.1042
-10.3808
-11.5526
-12.5568
-13.3561
-13.9538
-14.3554
-14.5732
-14.6344
-14.5632
-14.3624
-14.0502
-13.6497
-13.1806
-12.6591
-12.0997
-11.5156
-10.9178
-10.3159
-9.71747
-9.12867
-8.55449
-8.00025
10.9222
10.1219
9.41319
8.61818
7.74015
6.81925
5.86363
4.87917
3.85679
2.7828
1.67193
0.528778
-0.616128
-1.7533
-2.88075
-3.99813
-5.09538
-6.19003
-7.26161
-8.27383
-9.2043
-10.007
-10.6559
-11.1539
-11.5049
-11.7176
-11.8111
-11.8032
-11.6958
-11.5016
-11.2375
-10.9177
-10.5543
-10.1579
-9.73834
-9.30411
-8.86232
-8.41894
-7.97885
-7.546
-7.12504
9.29301
8.61061
8.00645
7.32569
6.57521
5.79047
4.97847
4.14427
3.28201
2.38252
1.45774
0.511891
-0.431708
-1.36553
-2.28756
-3.19683
-4.08539
-4.96537
-5.82179
-6.6286
-7.37008
-8.0124
-8.5375
-8.94826
-9.24776
-9.44233
-9.54604
-9.57197
-9.52143
-9.40381
-9.23134
-9.01446
-8.76196
-8.48179
-8.18123
-7.86665
-7.54345
-7.21621
-6.88871
-6.56403
-6.2462
7.9499
7.36726
6.85006
6.2648
5.62064
4.94878
4.25539
3.54493
2.81385
2.0562
1.28174
0.494351
-0.288017
-1.05932
-1.81766
-2.56178
-3.28538
-3.9969
-4.68526
-5.33158
-5.92478
-6.43988
-6.86447
-7.20143
-7.45335
-7.62512
-7.7272
-7.76942
-7.75288
-7.68452
-7.57333
-7.42702
-7.25207
-7.05439
-6.8394
-6.61188
-6.3759
-6.13493
-5.89193
-5.64921
-5.41028
6.8363
6.33825
5.89378
5.38879
4.83372
4.25601
3.66122
3.05337
2.43057
1.78913
1.13713
0.478078
-0.17408
-0.81447
-1.44135
-2.0534
-2.64566
-3.22399
-3.78014
-4.30038
-4.7769
-5.19114
-5.53475
-5.8105
-6.02066
-6.16912
-6.26381
-6.31221
-6.31533
-6.27838
-6.20803
-6.11002
-5.98918
-5.84992
-5.69629
-5.53187
-5.35974
-5.18253
-5.00253
-4.82146
-4.64236
5.90831
5.48216
5.0988
4.66156
4.1815
3.68274
3.17038
2.64813
2.11525
1.56968
1.01815
0.463807
-0.0824263
-0.616611
-1.13719
-1.64292
-2.12988
-2.6022
-3.05369
-3.47435
-3.85869
-4.1929
-4.47146
-4.69701
-4.87153
-4.99822
-5.08317
-5.13213
-5.14606
-5.12891
-5.08572
-5.02077
-4.9377
-4.83982
-4.73018
-4.61146
-4.48601
-4.35582
-4.22265
-4.08777
-3.95381
5.13156
4.76663
4.43481
4.05498
3.63832
3.20606
2.76294
2.31243
1.85464
1.38863
0.920031
0.451685
-0.00783221
-0.455324
-0.889437
-1.30905
-1.71111
-2.09851
-2.46666
-2.80827
-3.11948
-3.39005
-3.61644
-3.80107
-3.94571
-4.05301
-4.12771
-4.17428
-4.19363
-4.1888
-4.1636
-4.12129
-4.06462
-3.99609
-3.91802
-3.83242
-3.74109
-3.64554
-3.54712
-3.44677
-3.34676
4.47886
4.16615
3.87795
3.5469
3.18401
2.80797
2.42325
2.03314
1.63833
1.23866
0.838906
0.441573
0.0534408
-0.3229
-0.6863
-1.03579
-1.36901
-1.68805
-1.98948
-2.268
-2.521
-2.74082
-2.92533
-3.07671
-3.19656
-3.28707
-3.35198
-3.39478
-3.41631
-3.41897
-3.40565
-3.37885
-3.34067
-3.29302
-3.23765
-3.17611
-3.10976
-3.03976
-2.96715
-2.89261
-2.81809
3.92853
3.66041
3.40924
3.11975
2.80259
2.47422
2.13893
1.79985
1.45807
1.11398
0.771619
0.433215
0.104132
-0.213536
-0.518833
-0.810963
-1.08812
-1.35183
-1.59958
-1.82756
-2.034
-2.21324
-2.36409
-2.48852
-2.58791
-2.66413
-2.72013
-2.75867
-2.78052
-2.78756
-2.78204
-2.76587
-2.74067
-2.70791
-2.66892
-2.62489
-2.57687
-2.52574
-2.47232
-2.41709
-2.36172
3.46317
3.23318
3.01351
2.7595
2.4813
2.19346
1.90012
1.60428
1.3073
1.00993
0.715619
0.426319
0.146287
-0.122796
-0.380156
-0.625164
-0.856467
-1.07522
-1.2796
-1.46689
-1.63597
-1.78266
-1.90641
-2.00898
-2.09157
-2.15576
-2.20389
-2.23817
-2.2593
-2.26876
-2.26831
-2.25942
-2.24334
-2.22122
-2.19408
-2.16285
-2.12831
-2.09116
-2.05203
-2.01127
-1.9703
3.06873
2.87135
2.67853
2.45484
2.20989
1.95658
1.69892
1.4398
1.18076
0.922793
0.668837
0.420602
0.181463
-0.0472448
-0.264913
-0.471072
-0.664735
-0.846805
-1.01601
-1.17044
-1.30944
-1.42994
-1.53183
-1.61665
-1.68546
-1.73958
-1.7809
-1.81119
-1.83106
-1.8417
-1.84448
-1.84056
-1.83091
-1.81641
-1.79787
-1.776
-1.75142
-1.72464
-1.69619
-1.66628
-1.63616
2.73379
2.56431
2.3944
2.19664
1.98008
1.75621
1.52893
1.30105
1.07422
0.849558
0.629592
0.415801
0.210857
0.0158056
-0.168897
-0.342928
-0.505599
-0.657649
-0.798217
-0.926013
-1.04071
-1.14008
-1.2243
-1.2947
-1.35221
-1.39796
-1.43346
-1.46012
-1.4785
-1.48955
-1.49435
-1.4938
-1.48867
-1.47965
-1.46737
-1.45237
-1.43514
-1.41609
-1.39562
-1.37389
-1.35194
2.44903
2.30342
2.15305
1.97745
1.78513
1.58636
1.38498
1.18371
0.984241
0.787789
0.596509
0.411678
0.235399
0.0684728
-0.0887813
-0.236175
-0.373257
-0.500667
-0.617861
-0.724007
-0.819022
-0.901298
-0.971193
-1.02986
-1.07812
-1.11691
-1.14745
-1.1709
-1.18773
-1.19873
-1.20472
-1.20644
-1.20448
-1.19939
-1.19166
-1.18171
-1.16994
-1.15664
-1.14215
-1.12657
-1.11079
2.20683
2.08161
1.94791
1.7912
1.61955
1.44217
1.26283
1.08421
0.908021
0.735483
0.568453
0.408014
0.255809
0.112433
-0.0219209
-0.147182
-0.263093
-0.370231
-0.468297
-0.556799
-0.635823
-0.704239
-0.762504
-0.811619
-0.852284
-0.885301
-0.911668
-0.932307
-0.947646
-0.958308
-0.964962
-0.968177
-0.968435
-0.966162
-0.961743
-0.955519
-0.947786
-0.93879
-0.928794
-0.917851
-0.906742
2.00091
1.89308
1.77355
1.63293
1.47885
1.31964
1.15904
0.999678
0.843253
0.690986
0.544464
0.404595
0.272638
0.149009
0.0337904
-0.0730511
-0.171417
-0.261845
-0.344224
-0.418316
-0.484323
-0.541472
-0.590273
-0.631586
-0.666018
-0.694247
-0.717088
-0.735289
-0.749223
-0.759396
-0.76634
-0.770511
-0.77229
-0.772017
-0.769996
-0.766495
-0.761749
-0.755951
-0.749313
-0.74186
-0.734268
1.82609
1.73301
1.62547
1.49845
1.35925
1.21544
1.07074
0.927717
0.788053
0.652944
0.523749
0.401216
0.286292
0.179233
0.08002
-0.0114741
-0.0952795
-0.171913
-0.241408
-0.303709
-0.3591
-0.407076
-0.448163
-0.483101
-0.512414
-0.536678
-0.556557
-0.572665
-0.585323
-0.594943
-0.601952
-0.606712
-0.609531
-0.610678
-0.610395
-0.608895
-0.606364
-0.602955
-0.598841
-0.594024
-0.589093
1.67819
1.5975
1.49997
1.38428
1.25751
1.12665
0.995382
0.86621
0.74077
0.620193
0.505635
0.397702
0.297089
0.203919
0.118087
0.0393825
-0.0323313
-0.0975625
-0.156456
-0.209091
-0.255803
-0.296286
-0.331061
-0.360763
-0.385844
-0.406794
-0.424161
-0.438445
-0.449926
-0.45894
-0.465832
-0.470893
-0.474368
-0.476475
-0.477407
-0.477334
-0.476404
-0.474738
-0.472477
-0.469611
-0.466653
1.55376
1.48345
1.39423
1.28783
1.17123
1.05099
0.930833
0.813238
0.699784
0.591508
0.489354
0.393768
0.305214
0.223702
0.149053
0.0809942
0.0193098
-0.036503
-0.0866734
-0.13138
-0.170995
-0.205361
-0.234983
-0.260404
-0.282016
-0.300236
-0.315513
-0.328262
-0.338719
-0.347163
-0.353872
-0.35908
-0.362986
-0.365764
-0.367571
-0.368541
-0.368795
-0.368429
-0.36756
-0.366168
-0.3647
1.4499
1.38825
1.30598
1.20725
1.09895
0.987292
0.876075
0.767817
0.66411
0.565951
0.474114
0.388886
0.310505
0.238836
0.173605
0.114467
0.061138
0.0131244
-0.0298553
-0.0680416
-0.101817
-0.131134
-0.156474
-0.178303
-0.196965
-0.212819
-0.226243
-0.237579
-0.247034
-0.254839
-0.261219
-0.266365
-0.270439
-0.273582
-0.275919
-0.27756
-0.278601
-0.279119
-0.27921
-0.278852
-0.278429
1.36416
1.30926
1.23235
1.13974
1.0383
0.933884
0.830187
0.729672
0.633902
0.54386
0.460247
0.383296
0.31312
0.249494
0.192054
0.140363
0.094039
0.0525528
0.0155545
-0.0172553
-0.0462671
-0.0715136
-0.0934358
-0.112425
-0.128776
-0.142789
-0.154777
-0.16502
-0.173697
-0.181
-0.187114
-0.192196
-0.196379
-0.19978
-0.202501
-0.204632
-0.206253
-0.207426
-0.208233
-0.208651
-0.209003
1.29474
1.24423
1.17013
1.081
0.984166
0.885375
0.788184
0.69479
0.606473
0.523961
0.447725
0.377879
0.31445
0.257217
0.20585
0.159947
0.119124
0.082873
0.0508016
0.0225545
-0.0022849
-0.0238439
-0.0425601
-0.0587926
-0.0728165
-0.0849039
-0.0953222
-0.104308
-0.112017
-0.118609
-0.124231
-0.129012
-0.133056
-0.136459
-0.139301
-0.141654
-0.143581
-0.145132
-0.146371
-0.147279
-0.148114
1.24067
1.19325
1.12027
1.03189
0.936203
0.839426
0.745489
0.656689
0.574187
0.498422
0.429467
0.367052
0.310837
0.26035
0.215106
0.174638
0.138551
0.106405
0.0778679
0.0526432
0.0303864
0.0109694
-0.00596605
-0.0207067
-0.0334869
-0.0445431
-0.0541061
-0.0623827
-0.0695204
-0.075664
-0.0809477
-0.0854854
-0.0893737
-0.0926966
-0.0955274
-0.0979298
-0.0999588
-0.10166
-0.103084
-0.104227
-0.105271
1.20114
1.15844
1.08951
1.00402
0.909818
0.813305
0.719006
0.629851
0.547539
0.472882
0.406121
0.347019
0.295113
0.249747
0.210195
0.175729
0.14569
0.119432
0.0964427
0.0762979
0.0586053
0.0431559
0.0295984
0.0176848
0.00722317
-0.00196739
-0.0100557
-0.0171881
-0.0234682
-0.028996
-0.0338644
-0.0381526
-0.0419293
-0.0452544
-0.0481813
-0.0507567
-0.0530218
-0.0550116
-0.0567617
-0.0582808
-0.0596632
1.175
1.13621
1.07252
0.993467
0.90601
0.815592
0.726113
0.640208
0.559542
0.485099
0.417361
0.356418
0.302128
0.254155
0.21206
0.175343
0.1435
0.115996
0.0923364
0.0720474
0.0546644
0.0398408
0.027189
0.0164105
0.00723856
-0.00057253
-0.00723742
-0.0129361
-0.0178089
-0.0219791
-0.0255523
-0.0286155
-0.0312412
-0.0334899
-0.0354129
-0.0370534
-0.0384473
-0.0396264
-0.0406131
-0.0414401
-0.0420879
1.16117
1.11216
1.03448
0.944616
0.852468
0.763688
0.681073
0.605699
0.537715
0.476801
0.422432
0.373999
0.33089
0.29252
0.258359
0.227923
0.200791
0.176589
0.155015
0.13581
0.118738
0.103584
0.0900792
0.0780539
0.0673711
0.0578895
0.0494745
0.042006
0.0353831
0.029512
0.024307
0.0196915
0.0155978
0.0119658
0.00874259
0.00588058
0.00333997
0.00108051
-0.000914817
-0.00272446
-0.00417005
103.121
71.1461
53.5134
50.2841
45.8881
40.1485
35.4658
31.7522
28.4666
25.5076
22.8914
20.5784
18.5167
16.6719
15.0192
13.5366
12.2043
11.0056
9.92603
8.95309
8.07568
7.28404
6.56951
5.92442
5.34191
4.81586
4.34076
3.91169
3.52422
3.17435
2.85848
2.57336
2.31605
2.0839
1.87449
1.68567
1.51546
1.36206
1.22388
1.09943
0.987404
0.886584
0.795883
0.714312
0.640976
0.575062
0.515833
0.462621
0.414823
0.371891
0.333328
0.298687
0.267558
0.239576
0.214407
0.191749
0.171332
0.152905
0.136246
0.12115
0.107433
0.0949246
0.083467
0.0729212
0.0631279
0.054008
0.0452632
0.0371678
0.0283221
0.0217919
0.00752662
0.0116614
-0.0486975
0.0711735
100.055
71.1721
53.6407
50.1909
45.8415
40.1248
35.4424
31.7341
28.4537
25.4974
22.8831
20.5718
18.5114
16.6676
15.0157
13.5337
12.2019
11.0036
9.92443
8.95177
8.0746
7.28314
6.56878
5.92382
5.34142
4.81546
4.34043
3.91143
3.52401
3.17418
2.85835
2.57326
2.31597
2.08384
1.87445
1.68564
1.51544
1.36206
1.22388
1.09944
0.987414
0.886597
0.795899
0.71433
0.640996
0.575082
0.515854
0.462643
0.414845
0.371913
0.33335
0.298708
0.267579
0.239596
0.214427
0.191768
0.17135
0.152923
0.136263
0.121167
0.107448
0.0949394
0.0834812
0.0729347
0.0631408
0.0540202
0.0452752
0.0371789
0.0283351
0.0218002
0.00755468
0.0116454
-0.0484831
0.0708962
95.685
71.1029
53.6991
49.9214
45.7156
40.0667
35.3877
31.6913
28.4233
25.474
22.8644
20.5569
18.4995
16.658
15.0079
13.5274
12.1968
10.9994
9.92099
8.94897
8.07231
7.28128
6.56727
5.9226
5.34044
4.81467
4.3398
3.91093
3.52362
3.17388
2.85812
2.57309
2.31585
2.08376
1.8744
1.68562
1.51544
1.36207
1.2239
1.09948
0.987457
0.886646
0.795952
0.714386
0.641053
0.575141
0.515913
0.462702
0.414903
0.371969
0.333405
0.298761
0.267631
0.239646
0.214475
0.191815
0.171394
0.152965
0.136304
0.121205
0.107485
0.0949743
0.0835142
0.0729661
0.0631706
0.0540485
0.0453028
0.0372043
0.028364
0.0218197
0.00761462
0.0116172
-0.0480301
0.0703134
90.2893
70.4453
53.6333
49.4637
45.4621
39.9462
35.2835
31.6091
28.3655
25.4305
22.8301
20.53
18.4784
16.6413
14.9946
13.5167
12.1882
10.9925
9.91543
8.94449
8.06872
7.27841
6.56497
5.92078
5.339
4.81354
4.33893
3.91026
3.52312
3.17352
2.85786
2.57292
2.31575
2.08371
1.8744
1.68565
1.51549
1.36215
1.224
1.09958
0.987569
0.886763
0.796072
0.714507
0.641174
0.57526
0.51603
0.462816
0.415014
0.372077
0.333509
0.298861
0.267726
0.239737
0.214562
0.191898
0.171473
0.15304
0.136375
0.121272
0.107549
0.0950345
0.0835712
0.0730199
0.0632217
0.0540967
0.0453495
0.0372475
0.0284125
0.0218537
0.0077116
0.0115794
-0.047306
0.0693807
83.9942
68.923
53.3791
48.7797
45.0026
39.7158
35.1014
31.4631
28.2615
25.3535
22.7701
20.4834
18.4424
16.613
14.9723
13.4991
12.1742
10.9815
9.90666
8.93755
8.06323
7.27408
6.56158
5.91812
5.33694
4.81197
4.33774
3.90938
3.52248
3.17308
2.85758
2.57275
2.31568
2.08372
1.87447
1.68576
1.51564
1.36232
1.22418
1.09978
0.987773
0.886969
0.796279
0.714712
0.641375
0.575457
0.516221
0.463
0.415191
0.372247
0.333671
0.299016
0.267874
0.239878
0.214695
0.192024
0.171593
0.153153
0.136482
0.121373
0.107644
0.0951243
0.0836558
0.0730997
0.0632972
0.0541678
0.0454182
0.037311
0.0284831
0.0219041
0.00785069
0.0115326
-0.0462744
0.0680418
76.9875
66.3483
52.7614
47.8112
44.2497
39.3084
34.8008
31.219
28.0824
25.221
22.6674
20.4035
18.3804
16.5647
14.9343
13.4692
12.1507
10.9629
9.89202
8.926
8.05413
7.26694
6.55599
5.91378
5.33359
4.80939
4.3358
3.90794
3.52144
3.17234
2.85709
2.57246
2.31555
2.0837
1.87454
1.6859
1.51583
1.36254
1.22444
1.10005
0.988055
0.887256
0.796566
0.714997
0.641655
0.575729
0.516484
0.463254
0.415434
0.37248
0.333893
0.299227
0.268075
0.240068
0.214875
0.192195
0.171754
0.153305
0.136624
0.121508
0.10777
0.095243
0.0837675
0.0732047
0.0633962
0.0542609
0.045508
0.0373938
0.0285755
0.0219701
0.00803398
0.0114753
-0.0449031
0.0662371
69.4845
62.625
51.5426
46.4921
43.1248
38.6385
34.3278
30.8351
27.7914
25.0029
22.4976
20.27
18.2759
16.4825
14.8693
13.4176
12.1098
10.9304
9.86623
8.90552
8.03789
7.25407
6.54582
5.90577
5.3273
4.80449
4.33201
3.90503
3.51923
3.1707
2.8559
2.57163
2.31499
2.08337
1.87438
1.68587
1.5159
1.3627
1.22465
1.1003
0.988334
0.887555
0.796876
0.715311
0.641969
0.576039
0.516788
0.463549
0.41572
0.372754
0.334156
0.299478
0.268313
0.240295
0.21509
0.192397
0.171945
0.153484
0.136793
0.121667
0.10792
0.0953831
0.083899
0.073328
0.0635124
0.0543699
0.0456132
0.0374907
0.0286849
0.0220471
0.00825997
0.0114035
-0.0431692
0.0639127
61.7616
57.8291
49.4954
44.7299
41.5632
37.6099
33.6117
30.2617
27.3445
24.6626
22.2312
20.0582
18.1075
16.3484
14.7619
13.3314
12.0405
10.8747
9.82134
8.86938
8.00881
7.2307
6.52705
5.89073
5.31528
4.7949
4.32438
3.899
3.51449
3.167
2.85303
2.56943
2.31334
2.08214
1.8735
1.68527
1.51552
1.36248
1.22456
1.10032
0.988431
0.887711
0.797075
0.715541
0.642219
0.576303
0.517058
0.463821
0.41599
0.373019
0.334414
0.299728
0.268554
0.240525
0.215309
0.192606
0.172142
0.153671
0.136969
0.121832
0.108075
0.0955294
0.0840363
0.0734569
0.0636339
0.054484
0.0457238
0.0375923
0.0288032
0.0221272
0.00852393
0.0113117
-0.0410638
0.0610329
54.0859
52.1898
46.4748
42.4034
39.5136
36.1335
32.5672
29.4383
26.691
24.1561
21.8325
19.7387
17.8508
16.1417
14.5946
13.1955
11.9299
10.7845
9.74778
8.80934
7.95979
7.19069
6.49443
5.86414
5.29364
4.77732
4.31012
3.88745
3.50517
3.15949
2.84701
2.56462
2.30951
2.07912
1.87113
1.68343
1.51411
1.36142
1.22378
1.09976
0.988048
0.887469
0.796944
0.715497
0.642243
0.576377
0.51717
0.463962
0.41615
0.373193
0.334596
0.299913
0.26874
0.240709
0.215489
0.19278
0.172311
0.153833
0.137123
0.121979
0.108214
0.0956604
0.08416
0.0735736
0.0637446
0.0545883
0.0458265
0.0376865
0.0289197
0.0222007
0.0088191
0.0111936
-0.0385967
0.0575932
46.6
45.9916
42.4715
39.3912
36.9255
34.1374
31.1015
28.2919
25.7719
23.4309
21.2577
19.276
17.4763
15.8378
14.347
12.9928
11.7636
10.6478
9.63516
8.71646
7.88314
7.1274
6.44216
5.82099
5.25803
4.74795
4.28592
3.86754
3.48879
3.14605
2.836
2.55561
2.30216
2.07314
1.86627
1.6795
1.51094
1.35887
1.22175
1.09814
0.986779
0.88648
0.796182
0.714919
0.641814
0.576068
0.516957
0.463825
0.416074
0.373163
0.334603
0.299948
0.268796
0.24078
0.215572
0.19287
0.172405
0.153929
0.137219
0.122074
0.108307
0.0957509
0.0842475
0.0736578
0.0638264
0.0546668
0.0459069
0.0377606
0.0290235
0.0222582
0.00913832
0.0110446
-0.0357989
0.0536307
39.2861
39.4664
37.6067
35.6192
33.7412
31.5672
29.1269
26.7377
24.5178
22.4255
20.4531
18.6255
16.9469
15.4059
13.9934
12.7022
11.524
10.4498
9.47122
8.58046
7.77017
7.03346
6.36399
5.7559
5.20382
4.7028
4.24832
3.83624
3.46275
3.1244
2.81801
2.54068
2.28977
2.06288
1.85778
1.67249
1.50515
1.35411
1.21783
1.09493
0.984149
0.884332
0.794434
0.713501
0.640668
0.575146
0.51622
0.463238
0.415611
0.372802
0.334324
0.299736
0.268638
0.240666
0.215492
0.192818
0.172375
0.153916
0.13722
0.122085
0.108326
0.0957755
0.0842766
0.0736903
0.0638623
0.0547047
0.0459522
0.0378035
0.0291052
0.0222917
0.00947524
0.0108626
-0.0327232
0.0492275
32.0649
32.7612
32.0811
31.105
29.9199
28.3888
26.5779
24.6924
22.8524
21.0707
19.3551
17.7317
16.2154
14.8059
13.5001
12.2954
11.1876
10.171
9.23975
8.38791
7.60973
6.8996
6.25218
5.66241
5.12559
4.63731
4.19346
3.79027
3.42424
3.09213
2.79097
2.51803
2.27081
2.04701
1.84451
1.66139
1.49588
1.34636
1.21137
1.08954
0.979662
0.880597
0.791329
0.710922
0.638528
0.573372
0.514751
0.462025
0.414609
0.371976
0.333645
0.299179
0.268181
0.240293
0.215188
0.192571
0.172175
0.153755
0.137091
0.121982
0.108244
0.0957122
0.0842284
0.0736547
0.0638385
0.0546901
0.0459525
0.0378068
0.0291582
0.0222964
0.00982517
0.0106492
-0.0294415
0.0445061
24.9126
25.9804
26.1199
25.9697
25.4821
24.604
23.4289
22.0977
20.7073
19.2988
17.8976
16.5328
15.2268
13.9895
12.8253
11.7366
10.724
9.78583
8.91918
8.12073
7.38674
6.71325
6.09627
5.53184
5.01614
4.54548
4.11637
3.72551
3.3698
3.04635
2.75247
2.48564
2.24356
2.02407
1.82521
1.64515
1.48222
1.33487
1.2017
1.08142
0.972831
0.874857
0.786506
0.706871
0.635126
0.570517
0.512355
0.460014
0.412923
0.370562
0.332459
0.298185
0.267348
0.239595
0.214603
0.192081
0.171764
0.153411
0.136803
0.12174
0.108043
0.0955439
0.0840887
0.0735393
0.0637454
0.0546154
0.0459016
0.0377661
0.0291791
0.0222706
0.010185
0.0104098
-0.0260388
0.0396157
17.9028
19.242
19.9485
20.4163
20.5412
20.2786
19.7132
18.9457
18.0465
17.0612
16.0253
14.9711
13.925
12.9048
11.9217
10.9838
10.0965
9.26233
8.48215
7.75558
7.08139
6.4577
5.88222
5.35241
4.86561
4.41911
4.01021
3.63627
3.29474
2.98318
2.69928
2.44084
2.2058
1.99224
1.79837
1.62251
1.46311
1.31875
1.1881
1.06993
0.963138
0.866674
0.779598
0.701039
0.630202
0.56636
0.508845
0.45705
0.41042
0.368448
0.330673
0.296675
0.266072
0.238516
0.213691
0.191309
0.171111
0.152857
0.136334
0.121343
0.107706
0.0952593
0.0838484
0.0733372
0.0635777
0.0544766
0.0457968
0.0376798
0.0291674
0.0222156
0.0105527
0.0101531
-0.0226047
0.0347137
11.2046
12.7196
13.8051
14.7026
15.3058
15.5677
15.5453
15.3062
14.8973
14.3559
13.7166
13.0115
12.2678
11.5069
10.745
9.99488
9.26604
8.56532
7.89733
7.26494
6.66974
6.11227
5.59229
5.10899
4.66117
4.24735
3.86584
3.51488
3.19263
2.89726
2.62694
2.37991
2.15447
1.94897
1.76188
1.59173
1.43714
1.29683
1.16959
1.0543
0.949928
0.855511
0.770161
0.69306
0.623454
0.560651
0.504015
0.452962
0.406959
0.365517
0.328191
0.294572
0.26429
0.237004
0.212408
0.190221
0.170187
0.152073
0.135667
0.120777
0.107225
0.0948503
0.0835018
0.0730442
0.0633327
0.0542724
0.0456379
0.0375486
0.0291241
0.0221348
0.0109264
0.00989022
-0.0192244
0.0299473
5.05839
6.64785
7.95394
9.11575
10.0475
10.7067
11.1224
11.3337
11.3678
11.2496
11.0058
10.663
10.2453
9.77344
9.26532
8.73595
8.19776
7.66072
7.1326
6.6193
6.12518
5.6533
5.20566
4.78343
4.3871
4.01666
3.67169
3.35147
3.0551
2.78149
2.52948
2.29786
2.08536
1.89077
1.71284
1.5504
1.4023
1.26745
1.1448
1.03339
0.932279
0.84061
0.757577
0.682429
0.61447
0.553057
0.497593
0.44753
0.402362
0.361627
0.324896
0.291782
0.261925
0.235
0.210709
0.188779
0.168963
0.151033
0.134784
0.120027
0.106588
0.0943099
0.083044
0.0726574
0.063009
0.0540027
0.0454258
0.0373746
0.0290515
0.0220328
0.0113042
0.00963369
-0.0159722
0.0254398
-0.219504
1.33771
2.71857
3.99427
5.10343
6.01276
6.73262
7.2802
7.66766
7.90772
8.01659
8.01221
7.91232
7.73385
7.49263
7.2031
6.87814
6.52895
6.16505
5.7944
5.42351
5.0576
4.70074
4.35603
4.02573
3.7114
3.41403
3.13413
2.87185
2.62705
2.39936
2.18825
1.99305
1.81302
1.64737
1.49527
1.35587
1.22835
1.11187
1.00565
0.908904
0.820912
0.740973
0.66843
0.602665
0.543099
0.489191
0.440438
0.396375
0.35657
0.320625
0.288172
0.258873
0.232419
0.208525
0.186931
0.167398
0.149709
0.133662
0.119076
0.105783
0.0936289
0.082469
0.0721732
0.0626049
0.0536672
0.0451612
0.0371601
0.0289521
0.0219152
0.0116833
0.00939736
-0.0129077
0.0212837
-4.1598
-2.72825
-1.39825
-0.140546
1.00462
2.01394
2.88758
3.62958
4.24222
4.72938
5.09821
5.35816
5.51979
5.59432
5.59325
5.52801
5.40959
5.24826
5.05346
4.8336
4.59612
4.34742
4.0929
3.83709
3.58365
3.3355
3.09493
2.86363
2.64283
2.43336
2.23569
2.05005
1.87644
1.71469
1.56448
1.42543
1.29704
1.1788
1.07015
0.970517
0.879328
0.796013
0.720011
0.650781
0.587804
0.530583
0.478649
0.431558
0.388892
0.350263
0.315307
0.283687
0.25509
0.229226
0.20583
0.184655
0.165476
0.148084
0.132289
0.117916
0.104803
0.0928015
0.0817719
0.0715876
0.0621172
0.0532636
0.0448423
0.0369043
0.0288236
0.0217838
0.0120525
0.00919163
-0.0100859
0.0175452
-6.70154
-5.45095
-4.25255
-3.09959
-2.01723
-1.02101
-0.115198
0.697679
1.41473
2.03458
2.55832
2.98901
3.33122
3.59075
3.77438
3.8896
3.94427
3.94635
3.90367
3.82371
3.71351
3.57949
3.42747
3.26256
3.08921
2.91123
2.73181
2.55356
2.3786
2.2086
2.04482
1.88818
1.73934
1.59869
1.46644
1.34262
1.22715
1.11985
1.02046
0.928645
0.844059
0.766313
0.695007
0.629734
0.570089
0.515675
0.466102
0.420997
0.380004
0.342781
0.309008
0.278382
0.250622
0.225462
0.202658
0.181982
0.163222
0.146183
0.130686
0.116564
0.103663