/*--------------------------------*- C++ -*----------------------------------*\
  =========                 |
  \\      /  F ield         | OpenFOAM: The Open Source CFD Toolbox
   \\    /   O peration     | Website:  https://openfoam.org
    \\  /    A nd           | Version:  11
     \\/     M anipulation  |
\*---------------------------------------------------------------------------*/
FoamFile
{
    format      ascii;
    class       volVectorField;
    location    "350";
    object      U;
}
// * * * * * * * * * * * * * * * * * * * * * * * * * * * * * * * * * * * * * //

dimensions      [0 1 -1 0 0 0 0];

internalField   nonuniform List<vector> 
11040
(
(1.62186 2.09384 7.55297e-18)
(2.19261 6.41647 -1.65468e-17)
(3.78852 10.8826 -1.8005e-17)
(6.36243 14.7417 2.29655e-17)
(9.63211 17.9373 -1.18075e-17)
(13.6796 20.2065 4.31688e-18)
(18.1186 21.1094 0)
(21.2673 19.2179 -6.99054e-18)
(22.559 16.561 0)
(23.4495 15.0943 -1.5102e-17)
(24.6091 14.8344 0)
(26.6945 15.8875 0)
(30.2451 17.0554 3.42752e-17)
(34.9033 16.8709 0)
(37.8989 13.1925 0)
(36.6837 6.79166 0)
(28.8892 -0.667923 0)
(21.407 -4.46434 5.94231e-17)
(18.8606 -4.83994 4.65313e-17)
(18.9824 -4.24428 -3.69595e-17)
(19.3647 -3.85245 3.11608e-17)
(19.3831 -3.65593 -8.97744e-19)
(19.2278 -3.5313 -2.38198e-17)
(19.0627 -3.43711 2.64889e-19)
(19.0274 -3.36816 0)
(18.8755 -3.46179 0)
(18.0579 -3.64823 0)
(17.2752 -3.64539 0)
(16.7829 -3.54847 2.05881e-17)
(16.4251 -3.45181 0)
(16.0644 -3.36251 0)
(15.6813 -3.27336 5.24982e-20)
(15.2859 -3.1829 1.36324e-20)
(14.8745 -3.09069 -1.38684e-20)
(14.4347 -2.99427 1.08718e-18)
(13.9566 -2.89083 -3.18655e-18)
(13.4116 -2.77457 -5.32387e-18)
(12.8042 -2.64379 -6.19812e-20)
(11.9752 -2.47231 3.71142e-20)
(11.2458 -2.2542 0)
(8.53752 -2.03195 1.92523e-17)
(2.78973 1.98623 -1.16125e-18)
(3.50737 5.94531 -6.78353e-19)
(5.26159 9.85305 -1.13131e-17)
(8.01538 13.1779 -4.59456e-18)
(11.3958 15.8455 0)
(15.5952 17.519 1.09386e-18)
(20.0828 17.723 4.28026e-19)
(24.0459 16.2439 2.27491e-18)
(25.7483 14.7636 -9.78436e-18)
(26.3187 14.3241 -9.89774e-20)
(27.0795 14.5762 -2.33791e-19)
(28.7005 15.6323 7.91898e-19)
(32.0286 15.9714 0)
(36.5438 14.219 0)
(40.7773 9.26387 0)
(43.1238 3.60228 9.19563e-18)
(39.9555 -2.57779 1.83021e-18)
(33.2533 -4.69666 -3.19309e-17)
(27.9674 -4.33608 -2.08451e-17)
(25.2289 -3.96871 -4.73539e-19)
(23.891 -3.86867 -1.73083e-17)
(23.0501 -3.78748 1.56277e-17)
(22.4475 -3.70239 -4.71556e-19)
(22.0028 -3.64379 -9.01136e-20)
(21.7396 -3.62355 -1.16488e-17)
(21.4965 -3.81698 3.25459e-19)
(20.9156 -4.08 -1.01671e-17)
(20.1105 -3.9666 -1.09492e-19)
(19.4833 -3.82213 -6.16911e-18)
(18.9848 -3.72519 0)
(18.5236 -3.63881 0)
(18.0781 -3.55039 -5.8068e-18)
(17.645 -3.46117 3.64494e-20)
(17.214 -3.37043 5.81498e-19)
(16.7708 -3.27456 -5.51926e-20)
(16.3067 -3.17069 0)
(15.7974 -3.05367 3.24578e-18)
(15.26 -2.9211 -1.54323e-20)
(14.5359 -2.74631 -6.18201e-18)
(14.0263 -2.52689 0)
(12.1216 -2.28603 -1.97502e-17)
(4.43197 1.81278 0)
(5.1485 5.41528 4.83144e-18)
(6.71615 8.92252 3.85552e-18)
(9.05435 11.9941 1.01069e-17)
(11.9669 14.4907 -5.62929e-19)
(15.5026 16.2062 4.45295e-18)
(19.3028 16.8299 -5.21159e-19)
(22.6212 16.1276 9.25105e-19)
(24.5727 15.174 1.71491e-18)
(25.6807 14.7776 -7.67556e-18)
(26.8615 14.8011 0)
(28.7137 15.3557 -8.61385e-19)
(31.8294 15.3648 1.61849e-17)
(35.8909 13.8266 -2.12606e-17)
(39.4464 9.55218 0)
(41.4872 4.27796 -7.30965e-18)
(40.7492 -1.85063 1.37982e-18)
(36.878 -4.45662 2.04443e-17)
(32.6856 -4.68084 -1.74574e-17)
(29.7002 -4.53842 1.42233e-17)
(27.7393 -4.42446 1.19948e-17)
(26.3496 -4.28187 -1.0832e-17)
(25.3445 -4.14859 0)
(24.6071 -4.05915 9.4574e-18)
(24.1154 -4.01687 8.92061e-18)
(23.6696 -4.16416 -5.05243e-19)
(22.9454 -4.3768 7.52292e-18)
(22.1425 -4.28797 -1.64318e-19)
(21.484 -4.1646 4.93831e-18)
(20.9412 -4.07153 -3.91228e-18)
(20.4356 -3.97853 3.06361e-18)
(19.9446 -3.87981 2.14902e-18)
(19.4669 -3.7794 -1.3388e-18)
(18.9949 -3.67675 -4.13928e-19)
(18.5152 -3.56828 -4.61999e-19)
(18.019 -3.45043 1.34786e-18)
(17.4824 -3.31828 -1.43194e-20)
(16.9202 -3.16399 0)
(16.1959 -2.97379 8.46247e-20)
(15.6317 -2.69625 -3.24692e-20)
(14.038 -2.41796 6.86226e-18)
(6.22555 1.63565 0)
(6.89174 4.89403 -1.22637e-18)
(8.26755 8.02811 -2.94413e-18)
(10.2751 10.8091 -7.92945e-18)
(12.8115 13.0874 2.21219e-18)
(15.8507 14.7296 -5.71034e-18)
(19.1351 15.515 -2.05899e-18)
(22.0876 15.2864 1.24288e-18)
(24.1905 14.5817 4.89626e-18)
(25.5838 14.175 1.02032e-17)
(26.9089 14.163 -1.63293e-18)
(28.7575 14.537 -3.88823e-19)
(31.5538 14.4604 2.63099e-19)
(35.1183 13.1066 1.89293e-17)
(38.3652 9.52433 -2.29897e-18)
(40.0986 4.88418 0)
(39.6588 -0.705973 -2.13679e-18)
(37.0446 -3.81121 2.47416e-18)
(33.9906 -4.51249 2.8383e-17)
(31.6742 -4.54847 -6.78125e-19)
(29.9728 -4.52452 1.05106e-17)
(28.5961 -4.44552 6.37114e-19)
(27.4893 -4.34406 0)
(26.6148 -4.26812 0)
(25.9737 -4.22751 -7.42882e-18)
(25.4099 -4.34853 4.21002e-19)
(24.6351 -4.54962 -5.7347e-18)
(23.808 -4.49932 0)
(23.1129 -4.38399 -3.66156e-18)
(22.536 -4.28692 2.88949e-18)
(22.0034 -4.19119 -4.83964e-18)
(21.4881 -4.08943 -1.69579e-18)
(20.9878 -3.98451 1.03862e-18)
(20.4957 -3.87604 0)
(19.9997 -3.76053 0)
(19.4911 -3.63378 -4.49389e-20)
(18.9482 -3.49113 0)
(18.3837 -3.32069 0)
(17.6802 -3.11705 3.45063e-18)
(17.1087 -2.79868 -4.89359e-20)
(15.7128 -2.49068 1.82073e-20)
(8.07607 1.46027 -2.66076e-19)
(8.68633 4.37761 0)
(9.88316 7.14863 3.10336e-18)
(11.5882 9.62958 -1.08993e-18)
(13.7481 11.6937 4.55202e-18)
(16.3147 13.2579 -5.53745e-18)
(19.1007 14.166 2.48373e-18)
(21.696 14.3324 -1.6903e-19)
(23.8199 13.9832 0)
(25.4002 13.6992 -4.9731e-19)
(26.8351 13.6573 5.92779e-18)
(28.665 13.8162 4.58467e-18)
(31.1839 13.5827 -8.93304e-18)
(34.2842 12.333 0)
(37.224 9.31896 -1.42981e-17)
(38.9898 5.24078 0)
(38.7379 0.238368 7.00002e-18)
(36.6203 -3.02552 -2.20972e-19)
(34.033 -4.05684 -1.01304e-18)
(32.0885 -4.26149 2.55571e-18)
(30.7265 -4.3601 -9.86492e-18)
(29.621 -4.38545 -8.96964e-18)
(28.6806 -4.35205 9.64411e-19)
(27.8843 -4.31947 0)
(27.2488 -4.30664 6.25663e-18)
(26.679 -4.41914 -6.68163e-19)
(25.9479 -4.61507 5.07639e-18)
(25.1562 -4.60615 -2.2142e-19)
(24.4623 -4.50857 4.05137e-19)
(23.8757 -4.41748 -2.65621e-18)
(23.3363 -4.32749 1.76097e-18)
(22.8168 -4.22895 1.59241e-18)
(22.3129 -4.12409 -1.77273e-20)
(21.8188 -4.01348 -2.209e-20)
(21.3232 -3.89401 2.34952e-21)
(20.8184 -3.7609 -1.66081e-20)
(20.2851 -3.60966 -5.9695e-20)
(19.7352 -3.4254 2.63473e-20)
(19.07 -3.20819 -2.60239e-18)
(18.5219 -2.86088 0)
(17.3326 -2.5252 3.73143e-18)
(9.94002 1.28839 9.85825e-19)
(10.4922 3.87211 -6.9735e-19)
(11.5201 6.29631 2.12199e-18)
(12.9499 8.48034 -3.73856e-18)
(14.7555 10.3298 -2.49833e-18)
(16.891 11.7971 9.06415e-18)
(19.2218 12.7755 2.03192e-18)
(21.4604 13.23 4.98493e-19)
(23.5038 13.2136 0)
(25.2049 13.0734 -4.8896e-18)
(26.7365 13.0089 -4.75083e-18)
(28.5326 12.9977 -2.47945e-18)
(30.7886 12.6451 2.8221e-18)
(33.4523 11.5053 1.84479e-18)
(36.0463 9.02909 1.21054e-17)
(37.8405 5.59136 -2.52266e-18)
(37.9714 1.20036 -3.23011e-18)
(36.336 -2.10738 -2.21181e-17)
(34.0119 -3.49342 -9.74769e-18)
(32.1328 -3.9041 1.90141e-18)
(30.8544 -4.1039 4.48071e-18)
(29.8901 -4.20934 7.60742e-18)
(29.0945 -4.23608 -6.10085e-18)
(28.4187 -4.24625 0)
(27.8611 -4.26594 0)
(27.3609 -4.37622 0)
(26.7461 -4.56467 3.95939e-18)
(26.0553 -4.59822 0)
(25.4183 -4.53199 0)
(24.8654 -4.45652 2.18878e-18)
(24.3549 -4.37853 0)
(23.8615 -4.28898 -1.28325e-18)
(23.381 -4.18938 8.15204e-19)
(22.909 -4.08118 0)
(22.4363 -3.96186 0)
(21.9565 -3.8263 -6.43268e-19)
(21.4535 -3.67012 2.60086e-20)
(20.9387 -3.47677 1.55877e-18)
(20.3336 -3.24945 2.09676e-18)
(19.8301 -2.88871 -2.58471e-18)
(18.8633 -2.53819 -3.01582e-18)
(11.7801 1.12258 0)
(12.2731 3.38646 0)
(13.1451 5.48486 1.62847e-18)
(14.3298 7.38323 1.26373e-18)
(15.8148 9.01963 0)
(17.5651 10.3725 -3.35379e-18)
(19.4881 11.3719 -4.85597e-19)
(21.3859 12.0069 -1.77385e-18)
(23.2665 12.2593 6.52778e-19)
(24.9933 12.281 -2.36554e-20)
(26.5777 12.2347 0)
(28.3193 12.1183 2.08778e-18)
(30.3348 11.691 -1.43822e-17)
(32.6098 10.66 6.26653e-18)
(34.8662 8.65314 4.04891e-18)
(36.6113 5.84445 8.73431e-18)
(37.1352 2.12405 -6.44913e-18)
(36.077 -1.09712 6.68862e-18)
(34.107 -2.812 -8.09225e-18)
(32.2766 -3.47505 0)
(30.963 -3.79079 -6.0635e-18)
(30.0057 -3.97407 -5.64404e-18)
(29.2467 -4.05909 1.01904e-17)
(28.6153 -4.10728 0)
(28.094 -4.15413 4.19878e-18)
(27.6362 -4.26007 3.74513e-18)
(27.1167 -4.43094 3.57897e-19)
(26.5294 -4.49588 -7.08635e-20)
(25.9674 -4.46311 -3.26865e-19)
(25.4694 -4.40609 0)
(25.0089 -4.342 0)
(24.563 -4.26453 1.07219e-18)
(24.1265 -4.17378 1.44146e-20)
(23.6966 -4.07133 3.78371e-19)
(23.2665 -3.95535 0)
(22.831 -3.82071 -4.07115e-19)
(22.3779 -3.6631 -3.19464e-20)
(21.9178 -3.46588 -1.2311e-18)
(21.3937 -3.23323 1.53685e-18)
(20.953 -2.87576 2.15162e-18)
(20.2137 -2.52291 0)
(13.5592 0.965609 0)
(13.994 2.92937 -1.46842e-18)
(14.7258 4.72698 2.50544e-18)
(15.6974 6.35727 -6.98802e-18)
(16.9026 7.78582 3.55676e-18)
(18.3187 9.00887 2.77405e-18)
(19.8853 9.98366 0)
(21.4688 10.7072 1.20007e-18)
(23.1333 11.1465 0)
(24.7907 11.3219 3.96045e-19)
(26.3658 11.3258 -1.11805e-18)
(28.0284 11.1638 1.05522e-18)
(29.825 10.7097 3.82635e-18)
(31.7634 9.79319 1.69607e-18)
(33.7041 8.18561 -6.39112e-19)
(35.3343 5.94503 -9.58146e-18)
(36.1484 2.91135 4.27723e-19)
(35.6728 -0.0623177 0)
(34.1782 -2.00252 3.66547e-18)
(32.5085 -2.94009 6.25622e-19)
(31.1806 -3.40695 5.1807e-18)
(30.1965 -3.68292 5.71854e-18)
(29.4264 -3.83622 1.17369e-18)
(28.789 -3.92836 0)
(28.2602 -4.00257 -3.47576e-18)
(27.8008 -4.10674 -3.10892e-18)
(27.3203 -4.25595 -2.73987e-18)
(26.7952 -4.33775 0)
(26.2832 -4.33347 1.99006e-18)
(25.8223 -4.29372 0)
(25.3991 -4.24144 0)
(24.9931 -4.17457 0)
(24.5975 -4.09212 -6.04049e-19)
(24.2095 -3.99528 -6.25141e-19)
(23.8238 -3.8829 -9.49142e-21)
(23.4362 -3.75023 6.22267e-19)
(23.0382 -3.59301 0)
(22.6387 -3.39613 -8.52085e-19)
(22.2021 -3.16271 -2.5075e-18)
(21.8307 -2.823 -1.45798e-18)
(21.2983 -2.47697 -2.50588e-20)
(15.2449 0.81994 0)
(15.624 2.50773 1.24369e-18)
(16.233 4.03244 -2.75886e-21)
(17.0236 5.4166 3.72515e-19)
(17.9922 6.64658 -3.04178e-18)
(19.1264 7.72974 -2.3746e-18)
(20.3885 8.64224 1.66929e-18)
(21.6906 9.38209 -1.01381e-18)
(23.1154 9.92412 -5.90273e-20)
(24.6274 10.2196 6.8733e-19)
(26.1242 10.2908 0)
(27.6755 10.1351 -5.52766e-18)
(29.2688 9.70193 5.1141e-18)
(30.9194 8.91048 -6.63049e-18)
(32.5751 7.6385 0)
(34.0505 5.89062 -2.44425e-18)
(35.0266 3.50979 7.21896e-18)
(35.0491 0.919728 -4.9193e-18)
(34.0848 -1.09663 0)
(32.6991 -2.28441 0)
(31.4369 -2.93274 0)
(30.451 -3.32068 -5.65962e-18)
(29.6723 -3.55447 2.5025e-19)
(29.0216 -3.70151 -1.48333e-18)
(28.4738 -3.80918 2.88289e-18)
(27.9964 -3.92012 1.20332e-18)
(27.5246 -4.05404 -1.19873e-18)
(27.0317 -4.14459 1.97329e-18)
(26.5475 -4.16453 2.89923e-20)
(26.1034 -4.14227 0)
(25.6963 -4.10067 -2.36623e-19)
(25.3105 -4.04246 2.38978e-19)
(24.9383 -3.96685 5.79188e-19)
(24.5767 -3.87459 2.77824e-19)
(24.2216 -3.76501 0)
(23.8701 -3.63413 -2.26688e-19)
(23.5164 -3.47792 0)
(23.1674 -3.28426 7.29855e-19)
(22.8049 -3.05421 9.73344e-19)
(22.4938 -2.74169 2.30699e-18)
(22.1161 -2.41101 0)
(16.8108 0.687415 9.75789e-19)
(17.1385 2.12597 -2.59169e-18)
(17.6423 3.40704 -2.97833e-18)
(18.2823 4.5694 5.70153e-18)
(19.056 5.61373 0)
(19.9579 6.55319 -1.63179e-18)
(20.9655 7.37633 1.36651e-18)
(22.0223 8.08035 -1.22742e-18)
(23.2087 8.6523 -1.49358e-19)
(24.5273 9.01977 -7.13424e-19)
(25.8847 9.15665 8.35469e-19)
(27.2897 9.04319 2.86561e-18)
(28.6879 8.66961 -5.32213e-18)
(30.0917 8.01302 6.39467e-18)
(31.4962 7.02321 -3.43904e-18)
(32.7988 5.68818 4.87368e-18)
(33.8215 3.88601 -3.70067e-18)
(34.207 1.76001 8.01126e-18)
(33.7496 -0.167561 0)
(32.7361 -1.52232 0)
(31.634 -2.35454 -3.20667e-18)
(30.6962 -2.87025 4.56046e-19)
(29.9323 -3.19596 3.0897e-18)
(29.2824 -3.40961 2.62405e-18)
(28.7239 -3.56033 -3.48616e-18)
(28.2325 -3.68936 -9.76917e-19)
(27.7631 -3.81955 -8.5794e-19)
(27.2919 -3.91657 -1.48916e-18)
(26.8293 -3.9573 7.77486e-19)
(26.3969 -3.95406 0)
(25.9975 -3.92509 2.01966e-19)
(25.6216 -3.87639 -3.53208e-19)
(25.2618 -3.80834 -3.23276e-19)
(24.9153 -3.72141 0)
(24.5791 -3.61531 0)
(24.2512 -3.48726 0)
(23.9286 -3.33391 0)
(23.6165 -3.14684 4.37004e-19)
(23.3076 -2.92543 0)
(23.0422 -2.64435 -8.60462e-19)
(22.7596 -2.33895 -2.68101e-20)
(18.2384 0.569117 0)
(18.5195 1.78588 0)
(18.9349 2.85251 -2.14859e-18)
(19.4515 3.81821 0)
(20.0677 4.69268 0)
(20.7817 5.49101 0)
(21.5807 6.20926 0)
(22.4286 6.84426 0)
(23.3943 7.39257 0)
(24.5009 7.78355 -8.892e-19)
(25.6778 7.96842 7.04381e-19)
(26.9069 7.91285 -6.30802e-19)
(28.1131 7.6218 2.01517e-18)
(29.3006 7.10383 2.81591e-18)
(30.4844 6.35157 -3.92114e-18)
(31.6116 5.35347 2.88624e-18)
(32.5947 4.03139 -7.76665e-21)
(33.1944 2.38306 -5.51961e-18)
(33.1549 0.68582 2.96598e-18)
(32.5444 -0.708238 -3.16654e-18)
(31.6864 -1.68266 0)
(30.8588 -2.32592 -2.53092e-18)
(30.1441 -2.7496 -4.5896e-18)
(29.518 -3.03826 4.30971e-18)
(28.9663 -3.24144 -2.0701e-18)
(28.4736 -3.40005 1.62989e-18)
(28.0111 -3.53945 -1.61381e-18)
(27.5603 -3.64572 -6.14798e-19)
(27.1206 -3.70534 -1.03464e-18)
(26.7039 -3.72231 -4.35865e-19)
(26.3148 -3.70888 0)
(25.9489 -3.672 0)
(25.6006 -3.61361 -4.57381e-19)
(25.2673 -3.53444 -2.49585e-19)
(24.9469 -3.43463 9.70758e-20)
(24.6384 -3.31261 4.57955e-22)
(24.3408 -3.16609 0)
(24.0579 -2.99004 -3.07752e-19)
(23.7881 -2.78356 -4.72597e-20)
(23.5575 -2.53523 0)
(23.3297 -2.26449 5.83418e-19)
(19.5165 0.465381 0)
(19.7564 1.48703 -1.8688e-18)
(20.0981 2.36722 3.62502e-18)
(20.5147 3.16105 0)
(21.005 3.88335 0)
(21.5689 4.54871 2.05216e-18)
(22.1992 5.15728 3.08539e-18)
(22.8731 5.70626 -1.864e-18)
(23.645 6.19782 0)
(24.5448 6.57351 4.74889e-21)
(25.5249 6.78143 -9.94111e-19)
(26.5615 6.78083 -7.16784e-19)
(27.5783 6.57758 1.8986e-18)
(28.5709 6.19214 5.96976e-19)
(29.5588 5.63855 -2.64066e-18)
(30.5161 4.91087 1.02457e-18)
(31.4053 3.96669 -3.45676e-18)
(32.0875 2.75152 3.94604e-18)
(32.3371 1.36818 1.05406e-18)
(32.0946 0.0692004 2.17142e-18)
(31.5287 -0.9628 0)
(30.8727 -1.70368 2.09831e-18)
(30.2498 -2.21785 -1.72445e-18)
(29.677 -2.58234 3.68522e-18)
(29.1548 -2.84375 0)
(28.6784 -3.04134 2.78992e-18)
(28.2325 -3.20178 0)
(27.805 -3.32314 1.00876e-18)
(27.3914 -3.40172 -1.02209e-18)
(26.9965 -3.43955 7.87954e-19)
(26.6241 -3.44429 -2.9273e-19)
(26.2731 -3.42229 2.94733e-19)
(25.9401 -3.37657 2.09096e-19)
(25.6231 -3.30852 4.07496e-19)
(25.3208 -3.21878 -7.66293e-20)
(25.033 -3.10698 -9.77405e-20)
(24.7597 -2.97212 0)
(24.5041 -2.81198 1.50118e-19)
(24.2663 -2.6265 4.01967e-20)
(24.0639 -2.41155 -4.00914e-20)
(23.8712 -2.18058 -4.74318e-19)
(20.6412 0.375923 0)
(20.8448 1.2274 -3.37083e-18)
(21.1255 1.94726 6.08841e-18)
(21.4612 2.59291 -2.29748e-18)
(21.8513 3.18166 1.8001e-18)
(22.2962 3.72628 -6.79768e-18)
(22.7915 4.22887 0)
(23.3228 4.6874 -1.12919e-18)
(23.931 5.10661 0)
(24.6444 5.44223 0)
(25.4333 5.64961 -1.06788e-18)
(26.2777 5.68971 1.46378e-18)
(27.1118 5.56473 0)
(27.9267 5.2958 -1.27352e-18)
(28.7388 4.90431 0)
(29.5356 4.38951 -4.2922e-18)
(30.3038 3.7322 4.87166e-18)
(30.9723 2.87278 6.66676e-19)
(31.3771 1.81914 -9.13596e-19)
(31.4142 0.714817 -1.85202e-18)
(31.1344 -0.272298 -1.57287e-18)
(30.6885 -1.04984 0)
(30.1988 -1.6256 -2.971e-18)
(29.7122 -2.05332 1.33409e-18)
(29.2466 -2.37025 1.224e-18)
(28.8078 -2.6107 -1.23679e-19)
(28.3927 -2.80017 -3.09193e-18)
(27.9958 -2.94288 0)
(27.6129 -3.04225 7.6388e-19)
(27.2458 -3.10165 -6.00902e-19)
(26.8971 -3.12656 6.05074e-19)
(26.567 -3.12233 -8.44772e-19)
(26.2543 -3.09253 3.94632e-19)
(25.9579 -3.03925 1.6158e-19)
(25.6773 -2.96382 4.47183e-20)
(25.4126 -2.8669 1.0026e-19)
(25.1644 -2.74875 0)
(24.9352 -2.60917 -1.8066e-19)
(24.7255 -2.44924 0)
(24.547 -2.26814 0)
(24.3808 -2.07739 0)
(21.6148 0.300062 0)
(21.7865 1.00412 1.02677e-18)
(22.0165 1.58748 -4.41387e-18)
(22.2868 2.10706 3.29583e-18)
(22.597 2.58088 1.53611e-18)
(22.9475 3.01937 -8.64489e-19)
(23.3354 3.42535 5.33278e-18)
(23.7517 3.79763 -6.30934e-18)
(24.2254 4.14163 4.33312e-18)
(24.7802 4.42564 -2.47586e-18)
(25.398 4.61549 6.06311e-19)
(26.0651 4.67869 -1.88793e-18)
(26.7306 4.61415 1.88562e-18)
(27.3849 4.43899 2.43356e-18)
(28.0395 4.17432 -2.21042e-18)
(28.6878 3.82204 -2.36805e-19)
(29.3271 3.37648 0)
(29.9248 2.7886 -5.89921e-19)
(30.3757 2.02922 4.68778e-18)
(30.5826 1.16248 -4.77848e-18)
(30.5321 0.305045 1.33841e-18)
(30.2948 -0.434845 0)
(29.9619 -1.02364 1.73783e-18)
(29.5891 -1.48543 -1.6148e-18)
(29.2058 -1.8424 8.49453e-19)
(28.8276 -2.11992 -9.62008e-19)
(28.4606 -2.33923 8.05474e-19)
(28.1053 -2.50628 6.9038e-19)
(27.7605 -2.62804 -6.26022e-19)
(27.4279 -2.70958 -9.88774e-19)
(27.1097 -2.75587 9.93775e-19)
(26.8071 -2.77166 -1.10194e-20)
(26.5202 -2.76068 3.0701e-19)
(26.2488 -2.72563 -2.13196e-19)
(25.9931 -2.66848 0)
(25.7535 -2.59076 3.25242e-20)
(25.5309 -2.49374 -8.36731e-20)
(25.327 -2.37852 4.11334e-20)
(25.1423 -2.24701 4.4602e-20)
(24.9839 -2.09977 -2.26318e-20)
(24.839 -1.94713 -1.16915e-19)
(22.4442 0.236936 -1.5804e-18)
(22.5879 0.814092 -1.04158e-18)
(22.7756 1.28239 -2.22853e-18)
(22.9927 1.69611 2.61011e-18)
(23.2392 2.07279 3.66027e-18)
(23.5147 2.42055 -1.69902e-18)
(23.8177 2.74227 -2.86298e-18)
(24.1418 3.03749 0)
(24.5076 3.31133 -2.06618e-18)
(24.9329 3.54189 9.70839e-19)
(25.4066 3.70501 5.51978e-19)
(25.9205 3.77606 1.06183e-18)
(26.4381 3.75244 -2.91354e-18)
(26.9512 3.64646 2.55444e-18)
(27.4672 3.47575 0)
(27.9821 3.24301 -6.17531e-19)
(28.4967 2.94915 5.23282e-18)
(28.9982 2.55786 -5.07886e-18)
(29.4242 2.03327 -1.7362e-19)
(29.7025 1.39577 6.84403e-18)
(29.7992 0.711449 -7.31675e-18)
(29.7309 0.0704927 0)
(29.5489 -0.4775 -8.45782e-19)
(29.3002 -0.932956 4.2437e-19)
(29.0161 -1.30236 0)
(28.7167 -1.59996 0)
(28.414 -1.84032 -2.32739e-18)
(28.1131 -2.02806 1.77534e-18)
(27.8159 -2.17039 -9.21278e-19)
(27.5256 -2.27281 9.25066e-19)
(27.2451 -2.34012 3.6625e-19)
(26.9764 -2.37668 8.7941e-19)
(26.7206 -2.38623 -1.28197e-18)
(26.4785 -2.37179 3.56261e-19)
(26.2508 -2.33582 -4.9307e-20)
(26.0381 -2.28043 1.30667e-19)
(25.8413 -2.20756 1.28277e-19)
(25.6616 -2.11902 -3.84422e-20)
(25.4993 -2.0171 -3.04704e-20)
(25.3585 -1.90292 1.31358e-20)
(25.2311 -1.78542 4.87537e-20)
(23.1388 0.185446 0)
(23.2578 0.654232 -5.62319e-19)
(23.4102 1.02659 -7.89609e-19)
(23.5842 1.35267 6.11032e-18)
(23.7796 1.64873 -4.07092e-18)
(23.9959 1.92081 -1.06144e-18)
(24.2318 2.17155 2.01107e-18)
(24.4832 2.40106 0)
(24.7639 2.61374 6.62377e-19)
(25.0864 2.79489 -6.22757e-19)
(25.4443 2.92833 7.48008e-19)
(25.8326 2.99664 -9.51252e-19)
(26.2267 2.99706 1.50204e-18)
(26.6203 2.93789 3.26953e-18)
(27.0179 2.83253 -2.93135e-18)
(27.417 2.68343 -2.87059e-18)
(27.8189 2.49433 2.84426e-18)
(28.2201 2.23967 -3.87439e-22)
(28.5851 1.88861 -4.17506e-18)
(28.8666 1.44257 4.3322e-18)
(29.0326 0.933268 5.02537e-18)
(29.0738 0.422573 -4.85733e-18)
(29.0109 -0.043467 3.31782e-19)
(28.8748 -0.453374 0)
(28.6904 -0.802645 0)
(28.4768 -1.09563 0)
(28.2481 -1.33973 0)
(28.0114 -1.53688 0)
(27.7704 -1.69236 0)
(27.53 -1.81056 0)
(27.2941 -1.89558 -3.00801e-19)
(27.0655 -1.95118 9.4029e-19)
(26.8461 -1.98079 -5.46365e-19)
(26.6374 -1.98741 -3.06408e-19)
(26.4405 -1.97366 -6.65281e-20)
(26.2564 -1.94189 0)
(26.0859 -1.89432 1.14307e-20)
(25.9298 -1.83303 7.00247e-21)
(25.7885 -1.76033 -4.0248e-20)
(25.6642 -1.67745 1.83628e-21)
(25.5519 -1.59193 3.64971e-20)
(23.7099 0.144075 -7.00079e-19)
(23.8071 0.521158 -2.6016e-18)
(23.9302 0.814297 -3.49881e-19)
(24.0692 1.06903 3.17608e-18)
(24.2237 1.2995 4.53103e-18)
(24.393 1.51002 4.79877e-19)
(24.5762 1.70287 -3.69018e-18)
(24.7705 1.87856 1.97393e-18)
(24.9849 2.04064 -2.3161e-18)
(25.228 2.17944 4.63489e-19)
(25.4958 2.28455 -7.51034e-19)
(25.7853 2.34429 -5.61404e-20)
(26.0804 2.35639 7.72554e-19)
(26.3768 2.32633 -1.62017e-18)
(26.6773 2.26369 2.35413e-18)
(26.9799 2.17037 -2.43663e-18)
(27.2857 2.05044 4.56352e-18)
(27.595 1.88678 -9.20118e-18)
(27.8882 1.65634 4.93581e-18)
(28.1362 1.35452 -6.12504e-18)
(28.3157 0.994581 6.22143e-18)
(28.4102 0.61422 0)
(28.4233 0.247779 0)
(28.3716 -0.0911361 0)
(28.2711 -0.393501 8.81153e-20)
(28.1365 -0.657409 -2.81386e-18)
(27.9803 -0.884726 2.63807e-18)
(27.8095 -1.07498 1.45481e-19)
(27.6284 -1.23091 0)
(27.4422 -1.3551 -9.71327e-19)
(27.2554 -1.45032 9.69471e-19)
(27.0713 -1.51941 9.66965e-20)
(26.8924 -1.56511 -8.46283e-20)
(26.7205 -1.59 -5.44316e-19)
(26.5571 -1.59648 6.03824e-19)
(26.4032 -1.58678 0)
(26.2599 -1.56302 -3.53404e-20)
(26.1279 -1.5272 6.25486e-21)
(26.0074 -1.4814 7.55926e-20)
(25.8995 -1.42678 -9.80979e-21)
(25.8018 -1.36938 8.74925e-21)
(24.154 0.112931 6.15408e-19)
(24.2334 0.416153 0)
(24.3328 0.646997 -1.96792e-19)
(24.4442 0.846801 1.36855e-18)
(24.5671 1.02695 1.29689e-18)
(24.7007 1.19035 -2.45934e-18)
(24.8441 1.33904 0)
(24.9953 1.47379 7.4377e-19)
(25.1606 1.59726 3.51431e-19)
(25.3454 1.70313 3.82307e-19)
(25.5471 1.78473 9.79288e-20)
(25.7639 1.83434 6.24203e-19)
(25.9854 1.85041 -6.03002e-19)
(26.2086 1.8366 -1.19193e-18)
(26.4353 1.79975 -8.36907e-19)
(26.6639 1.74125 -8.32394e-19)
(26.8954 1.66462 -8.88812e-19)
(27.1305 1.5581 2.93774e-18)
(27.3584 1.40549 0)
(27.5615 1.20151 4.46143e-18)
(27.7244 0.951188 -4.25476e-18)
(27.8322 0.676667 -4.7826e-18)
(27.8815 0.401174 4.75482e-18)
(27.88 0.135997 0)
(27.8368 -0.109789 -8.09917e-20)
(27.7616 -0.331758 0)
(27.6639 -0.528732 1.43815e-19)
(27.5493 -0.698971 -2.02598e-18)
(27.4216 -0.843304 1.88608e-18)
(27.2854 -0.962717 1.58587e-18)
(27.1452 -1.0587 -1.5778e-18)
(27.004 -1.13305 -8.77733e-20)
(26.8646 -1.18771 4.10781e-20)
(26.7287 -1.22465 0)
(26.5981 -1.24577 -5.58251e-20)
(26.474 -1.25295 0)
(26.3572 -1.24796 -1.44099e-19)
(26.2485 -1.23251 -2.51132e-21)
(26.1483 -1.20833 9.33224e-20)
(26.0572 -1.1764 0)
(25.974 -1.14137 0)
(24.4846 0.0902134 -1.48774e-18)
(24.5503 0.336651 1.41065e-18)
(24.6315 0.52083 4.23504e-19)
(24.7221 0.679861 -1.24747e-18)
(24.8214 0.822703 2.16593e-19)
(24.9285 0.951331 0)
(25.0427 1.06757 -2.66693e-18)
(25.1627 1.17229 1.99873e-18)
(25.2924 1.26751 4.29757e-19)
(25.4358 1.34901 -6.53423e-19)
(25.5908 1.41243 2.99865e-19)
(25.7564 1.4526 -2.96164e-19)
(25.9254 1.46852 1.17306e-18)
(26.096 1.46271 -1.00428e-18)
(26.2692 1.44011 3.19424e-19)
(26.4438 1.40174 -3.2189e-19)
(26.6204 1.35058 4.50088e-18)
(26.8 1.27855 -1.56393e-18)
(26.9762 1.17434 -5.28802e-18)
(27.138 1.03352 2.70319e-18)
(27.2755 0.857789 -5.95331e-20)
(27.377 0.660415 0)
(27.4376 0.456648 -3.57294e-18)
(27.4606 0.254663 3.54339e-18)
(27.4507 0.0618594 3.42148e-18)
(27.414 -0.117086 -3.44595e-18)
(27.3569 -0.279842 1.58061e-18)
(27.2838 -0.424324 -1.58116e-18)
(27.1974 -0.550299 0)
(27.1015 -0.657755 -1.28781e-18)
(26.9998 -0.747247 1.28693e-18)
(26.8951 -0.819761 1.06202e-18)
(26.7897 -0.876523 -1.50433e-18)
(26.6854 -0.918885 4.7217e-19)
(26.5838 -0.948246 5.93209e-21)
(26.4861 -0.966017 3.19722e-19)
(26.3931 -0.973594 -4.58507e-19)
(26.3056 -0.972316 1.37493e-19)
(26.224 -0.96353 4.90857e-20)
(26.1487 -0.948048 -2.8561e-20)
(26.0793 -0.929301 -2.46513e-20)
(24.7348 0.07322 0)
(24.7898 0.275417 -4.55015e-19)
(24.8568 0.424172 -1.08465e-19)
(24.9313 0.552388 -1.69735e-18)
(25.0126 0.667101 8.15605e-19)
(25.0998 0.769681 2.36888e-18)
(25.1922 0.861746 -4.36623e-18)
(25.2888 0.944196 2.02448e-18)
(25.3925 1.01856 4.79056e-19)
(25.5057 1.08198 -1.68876e-18)
(25.627 1.13156 6.30507e-19)
(25.7558 1.1638 2.22381e-19)
(25.887 1.17806 -1.22748e-19)
(26.0193 1.17616 1.44458e-19)
(26.1535 1.16167 -1.76664e-18)
(26.2885 1.13541 2.33143e-18)
(26.4247 1.09971 2.75362e-18)
(26.5629 1.04901 -6.42432e-18)
(26.6992 0.975476 5.53537e-18)
(26.8266 0.875744 -2.01648e-18)
(26.9387 0.750256 -2.44883e-18)
(27.0267 0.607269 5.13802e-18)
(27.0862 0.456853 8.90585e-20)
(27.1185 0.304634 -2.53057e-18)
(27.1259 0.156127 4.6391e-20)
(27.112 0.015334 -7.28496e-20)
(27.0813 -0.115311 -2.46041e-20)
(27.0368 -0.233819 1.16703e-18)
(26.9803 -0.339518 -2.25517e-18)
(26.9147 -0.43192 1.08901e-18)
(26.8428 -0.511046 -8.32781e-21)
(26.7671 -0.577329 -1.31727e-20)
(26.6893 -0.631465 6.88397e-21)
(26.6112 -0.674315 -3.45935e-19)
(26.5339 -0.706835 3.48568e-19)
(26.4586 -0.730029 2.96094e-19)
(26.3862 -0.744921 -2.82364e-19)
(26.3172 -0.752509 0)
(26.252 -0.753806 0)
(26.1911 -0.749437 1.10247e-20)
(26.1345 -0.741853 4.40161e-21)
(24.9276 0.0601804 0)
(24.974 0.227379 2.16203e-18)
(25.0298 0.348799 2.53758e-18)
(25.0916 0.453307 -2.53667e-18)
(25.1589 0.546437 2.04627e-18)
(25.2306 0.629163 -2.04374e-18)
(25.3063 0.702914 -7.60419e-19)
(25.3851 0.768553 1.24766e-18)
(25.469 0.827271 -4.3396e-19)
(25.5598 0.877093 0)
(25.6562 0.916085 1.14358e-19)
(25.7579 0.941827 0)
(25.8612 0.95396 4.01336e-19)
(25.9652 0.9538 -4.97502e-19)
(26.0704 0.944 0)
(26.176 0.925181 -2.14761e-19)
(26.2821 0.899194 0)
(26.3893 0.862162 2.23785e-18)
(26.4952 0.80863 -2.52422e-18)
(26.5952 0.736198 0)
(26.685 0.644879 0)
(26.7582 0.540058 -1.3125e-19)
(26.8114 0.428504 -1.82701e-18)
(26.845 0.314033 1.8445e-18)
(26.8601 0.200594 -1.94761e-18)
(26.859 0.0913349 2.00132e-18)
(26.8445 -0.0116133 3.31737e-20)
(26.8187 -0.106618 0)
(26.7828 -0.192915 0)
(26.739 -0.26986 -8.04326e-19)
(26.6893 -0.337218 7.52175e-19)
(26.6356 -0.395102 1.22688e-20)
(26.5793 -0.443866 0)
(26.5218 -0.484023 2.56686e-20)
(26.4642 -0.516192 0)
(26.4073 -0.541058 -8.3629e-21)
(26.3518 -0.559338 -2.19045e-19)
(26.2984 -0.57175 1.43886e-19)
(26.2474 -0.579025 7.48925e-20)
(26.1991 -0.581636 -1.02167e-20)
(26.1538 -0.581256 -8.84338e-21)
(25.0787 0.0499771 -5.58971e-19)
(25.1179 0.189124 -3.04017e-19)
(25.1647 0.289119 -1.48229e-18)
(25.2164 0.37508 0)
(25.2726 0.451372 0)
(25.3322 0.518707 0)
(25.3947 0.57835 7.03351e-19)
(25.4597 0.631096 -2.39931e-18)
(25.5284 0.677887 1.10851e-18)
(25.602 0.717353 1.45581e-18)
(25.6796 0.748188 -4.63417e-19)
(25.7609 0.768714 7.48525e-20)
(25.8433 0.778743 -7.51082e-20)
(25.926 0.779263 6.26208e-19)
(26.0094 0.772256 -6.36395e-19)
(26.0928 0.758219 0)
(26.1762 0.738598 1.38684e-18)
(26.2601 0.710673 -1.42615e-18)
(26.3428 0.670638 -2.12338e-18)
(26.4213 0.616818 4.48811e-18)
(26.4927 0.549122 5.11677e-19)
(26.5524 0.471231 -3.9413e-18)
(26.5977 0.38781 -1.64734e-19)
(26.6289 0.30146 2.86035e-18)
(26.6464 0.214967 -1.43556e-18)
(26.6516 0.130702 0)
(26.6466 0.0503792 8.09496e-20)
(26.6326 -0.024745 0)
(26.6105 -0.093974 -7.63593e-20)
(26.5818 -0.156684 0)
(26.548 -0.212557 4.16954e-20)
(26.5104 -0.261546 6.57312e-20)
(26.4703 -0.303804 5.16481e-19)
(26.4286 -0.33962 -5.45103e-19)
(26.3862 -0.369379 0)
(26.3438 -0.393532 0)
(26.302 -0.412568 -2.28004e-20)
(26.2613 -0.426986 6.13329e-20)
(26.222 -0.437305 -1.39379e-19)
(26.1843 -0.443874 7.57787e-20)
(26.1487 -0.447783 2.38661e-20)
(25.1985 0.0418669 -3.73402e-19)
(25.2319 0.1583 8.56844e-19)
(25.2712 0.241288 -1.31836e-18)
(25.3148 0.312546 1.66993e-19)
(25.362 0.375531 0)
(25.4119 0.430781 1.04258e-18)
(25.4641 0.47941 -2.09408e-18)
(25.5181 0.522139 7.58951e-20)
(25.5748 0.559725 7.46382e-19)
(25.6351 0.591213 -1.3682e-18)
(25.6983 0.615721 0)
(25.764 0.63208 3.22625e-20)
(25.8303 0.640216 0)
(25.8967 0.640884 0)
(25.9634 0.635585 0)
(26.0299 0.624723 0)
(26.0961 0.609428 1.27933e-18)
(26.1622 0.587784 -1.13624e-18)
(26.2273 0.557124 0)
(26.2891 0.516304 0)
(26.3457 0.465243 1.43563e-18)
(26.3939 0.406564 -1.88577e-18)
(26.4315 0.343562 1.9893e-18)
(26.4588 0.278033 -2.08464e-18)
(26.476 0.211942 0)
(26.484 0.147039 9.59421e-19)
(26.4841 0.0846483 -2.2797e-18)
(26.4773 0.0256998 1.05739e-18)
(26.4642 -0.0292347 1.30735e-20)
(26.4457 -0.0796225 0)
(26.423 -0.125151 -5.37952e-20)
(26.397 -0.165713 -1.00833e-20)
(26.3687 -0.201352 0)
(26.3388 -0.232222 -4.56853e-20)
(26.308 -0.258558 0)
(26.2767 -0.280652 0)
(26.2456 -0.298829 2.12303e-20)
(26.2149 -0.313433 -3.45681e-20)
(26.185 -0.324824 6.50693e-20)
(26.156 -0.333258 -5.14033e-21)
(26.1284 -0.33941 -4.37912e-20)
(25.2946 0.035335 0)
(25.323 0.133218 0)
(25.3564 0.202555 1.21362e-18)
(25.3933 0.262022 6.13668e-20)
(25.4332 0.314367 0)
(25.4752 0.360015 9.50407e-19)
(25.5191 0.399942 6.75367e-19)
(25.5643 0.434797 -1.63731e-18)
(25.6115 0.465194 3.94644e-19)
(25.6613 0.490471 -6.99642e-19)
(25.7132 0.510036 -1.00887e-19)
(25.7667 0.523076 -3.01287e-20)
(25.8206 0.529588 0)
(25.8744 0.530165 -1.13589e-19)
(25.9282 0.525952 0)
(25.9816 0.517287 0)
(26.0345 0.505054 -1.00917e-18)
(26.0871 0.4879 8.40083e-19)
(26.1386 0.463952 0)
(26.1874 0.432442 0)
(26.2324 0.39333 -1.36412e-18)
(26.271 0.348546 2.88989e-18)
(26.3018 0.300474 -2.93559e-18)
(26.325 0.250373 1.45748e-18)
(26.3407 0.199641 0)
(26.3494 0.149558 2.06229e-19)
(26.3522 0.101126 1.48588e-19)
(26.3496 0.0550192 0)
(26.3421 0.0116816 -7.13976e-19)
(26.3304 -0.0284613 8.46378e-19)
(26.3153 -0.0651406 1.32979e-19)
(26.2975 -0.0982365 -4.77713e-20)
(26.2777 -0.127743 -3.78325e-20)
(26.2564 -0.153738 4.25957e-20)
(26.2341 -0.176362 0)
(26.2113 -0.195801 3.19788e-20)
(26.1882 -0.212274 0)
(26.1653 -0.226013 1.7683e-19)
(26.1428 -0.237265 -1.15397e-19)
(26.1208 -0.24622 -2.37521e-21)
(26.0995 -0.253269 -2.45732e-20)
(25.3725 0.0300158 4.89703e-19)
(25.3967 0.112638 2.24137e-19)
(25.4251 0.170913 -1.22222e-18)
(25.4565 0.22083 3.29468e-18)
(25.4904 0.264588 -1.58203e-18)
(25.526 0.302529 6.2194e-19)
(25.563 0.335512 6.4204e-19)
(25.6011 0.364115 5.4602e-19)
(25.6407 0.388842 4.33607e-19)
(25.6822 0.409241 3.0108e-19)
(25.725 0.424919 -2.03029e-19)
(25.7691 0.435315 -2.70845e-20)
(25.8132 0.440472 -2.76717e-20)
(25.8571 0.440862 6.78944e-19)
(25.9008 0.43737 -4.97322e-19)
(25.944 0.430281 9.88326e-19)
(25.9865 0.420292 -8.46982e-19)
(26.0286 0.406447 0)
(26.0696 0.387431 9.04177e-20)
(26.1084 0.362736 -9.54935e-19)
(26.1441 0.332363 9.74973e-19)
(26.1751 0.297772 -8.684e-19)
(26.2001 0.260721 2.13579e-18)
(26.2194 0.222109 -1.06855e-18)
(26.2331 0.182938 0)
(26.2416 0.144147 -8.56739e-20)
(26.2455 0.106483 -8.55456e-20)
(26.2453 0.0704309 0)
(26.2414 0.0363251 -5.85074e-19)
(26.2341 0.00449226 5.64583e-19)
(26.2242 -0.0248517 -7.7224e-20)
(26.212 -0.0515985 0)
(26.1982 -0.0757226 3.52824e-20)