/*--------------------------------*- C++ -*----------------------------------*\
  =========                 |
  \\      /  F ield         | OpenFOAM: The Open Source CFD Toolbox
   \\    /   O peration     | Website:  https://openfoam.org
    \\  /    A nd           | Version:  11
     \\/     M anipulation  |
\*---------------------------------------------------------------------------*/
FoamFile
{
    format      ascii;
    class       volScalarField;
    location    "300";
    object      p;
}
// * * * * * * * * * * * * * * * * * * * * * * * * * * * * * * * * * * * * * //

dimensions      [0 2 -2 0 0 0 0];

internalField   nonuniform List<scalar> 
11040
(
376.433
356.385
309.007
237.107
153.079
46.2059
-61.2384
-135.958
-127.901
-118.57
-147.087
-204.914
-338.822
-506.96
-652.738
-665.291
-592.269
-386.142
-254.326
-206.474
-180.5
-156.099
-135.736
-120.369
-109.184
-102.768
-90.3759
-67.757
-53.6368
-43.2732
-33.0268
-22.898
-13.2363
-3.90187
5.36625
14.7559
24.3759
34.6127
45.287
58.4035
69.2468
369.266
349.807
307.423
244.873
169.676
77.3134
-16.9697
-86.1355
-103.707
-109.232
-141.362
-199.482
-317.437
-463.09
-590.189
-613.335
-566.672
-394.975
-264.969
-211.509
-183.035
-157.99
-137.199
-121.434
-109.788
-102.651
-90.4666
-68.8558
-54.5203
-43.947
-33.6427
-23.4775
-13.776
-4.41075
4.87391
14.27
23.883
34.1056
44.6941
57.8415
68.0973
357.144
339.06
301.271
245.897
177.543
95.3689
9.53248
-59.6766
-94.075
-109.016
-139.79
-194.756
-296.776
-423.956
-539.669
-574.044
-542.771
-401.562
-273.327
-214.056
-184.161
-159.163
-138.15
-122.049
-109.97
-102.124
-90.3542
-69.8871
-55.1397
-44.3372
-34.0338
-23.8639
-14.1386
-4.75837
4.52697
13.915
23.5055
33.69
44.1684
57.2104
66.8312
341.42
324.659
291.107
242.758
182.261
110.43
34.0715
-31.8249
-76.1478
-100.374
-132.599
-185.848
-274.635
-384.394
-488.241
-532.089
-516.652
-403.11
-281.372
-217.43
-185.683
-160.581
-139.289
-122.784
-110.231
-101.577
-90.1194
-70.9223
-55.8943
-44.861
-34.5594
-24.3868
-14.6361
-5.24243
4.03743
13.4059
22.9554
33.0673
43.3931
56.1567
65.1403
322.389
306.916
277.501
235.94
183.523
121.594
54.7553
-5.98179
-55.7887
-89.3559
-124.252
-175.272
-251.676
-344.431
-434.884
-483.4
-483.47
-399.437
-289.537
-222.056
-187.567
-162.154
-140.618
-123.641
-110.547
-100.983
-89.715
-71.9631
-56.8624
-45.5429
-35.2139
-25.0511
-15.2839
-5.8846
3.37483
12.6989
22.1723
32.1505
42.2487
54.5071
62.8238
300.413
286.235
260.777
225.544
181.02
128.474
70.953
16.3654
-34.6549
-75.05
-112.733
-161.369
-226.951
-304.402
-381.733
-431.987
-445.148
-389.899
-295.981
-227.154
-189.578
-163.715
-142.058
-124.603
-110.924
-100.423
-89.1953
-72.9345
-57.9962
-46.3763
-35.9979
-25.8694
-16.1056
-6.71503
2.50188
11.7469
21.0966
30.8625
40.6428
52.159
59.8699
276.071
263.186
241.409
211.914
174.755
130.868
82.2132
34.3346
-14.4014
-58.2005
-98.1375
-144.501
-200.896
-265.105
-330.174
-379.451
-402.327
-372.874
-298.539
-232.041
-191.751
-165.194
-143.507
-125.623
-111.345
-99.961
-88.635
-73.7556
-59.2349
-47.3824
-36.9358
-26.8638
-17.135
-7.77884
1.36418
10.4839
19.6479
29.1061
38.466
49.029
56.222
250.066
238.449
220.007
195.59
165.039
128.927
88.4762
47.4505
3.34457
-40.3584
-81.0769
-125.031
-173.74
-226.912
-281.084
-327.065
-355.763
-347.576
-295.024
-235.399
-193.802
-166.424
-144.784
-126.617
-111.782
-99.6228
-88.1013
-74.3721
-60.4809
-48.5395
-38.027
-28.0327
-18.3852
-9.10463
-0.0782624
8.85805
17.7616
26.8086
35.6443
45.1142
51.8279
223.164
212.767
197.277
177.252
152.428
123.098
90.0031
55.6142
17.3756
-23.3347
-62.7922
-103.834
-146.108
-190.314
-235.229
-276.508
-307.401
-314.744
-283.645
-235.209
-194.922
-167.076
-145.602
-127.398
-112.154
-99.3775
-87.6297
-74.7779
-61.6379
-49.8001
-39.2657
-29.3696
-19.8537
-10.7038
-1.84929
6.83656
15.399
23.9402
32.1626
40.5076
46.7018
196.143
186.901
173.972
157.666
137.669
114.1
87.4011
59.1542
27.1266
-8.70981
-44.9237
-82.2459
-118.932
-155.895
-193.164
-229.185
-259.463
-276.316
-263.684
-229.298
-193.744
-166.578
-145.557
-127.646
-112.268
-99.1025
-87.1855
-74.9824
-62.6227
-51.0905
-40.6352
-30.8756
-21.5473
-12.5966
-3.97985
4.38727
12.5339
20.4991
28.0471
35.3389
40.9403
169.741
161.58
150.839
137.628
121.613
102.828
81.5397
58.7453
32.6516
2.51567
-29.0503
-61.822
-93.3636
-124.338
-155.293
-186.066
-213.908
-235.047
-236.048
-216.137
-188.491
-163.944
-144.051
-126.892
-111.797
-98.5728
-86.6455
-74.9616
-63.3508
-52.2969
-42.075
-32.5321
-23.4645
-14.7955
-6.49451
1.48345
9.14771
16.4941
23.3422
29.7097
34.6953
144.615
137.458
128.568
117.902
105.124
90.2399
73.4216
55.2948
34.4966
10.0539
-16.2465
-43.9354
-70.538
-96.3442
-121.968
-147.795
-172.254
-193.911
-203.204
-195.676
-177.631
-157.859
-140.234
-124.489
-110.238
-97.4126
-85.7571
-74.606
-63.7224
-53.2789
-43.4682
-34.2669
-25.5563
-17.2664
-9.37369
-1.86169
5.26189
11.9712
18.1318
23.7153
28.1417
121.302
115.078
107.747
99.1568
88.9867
77.2441
64.0509
49.8011
33.5023
14.222
-6.89215
-29.4336
-51.2936
-72.4789
-93.4722
-114.763
-135.499
-155.425
-168.431
-169.63
-160.776
-147.211
-133.137
-119.655
-106.927
-95.0769
-84.1067
-73.6651
-63.5676
-53.8556
-44.637
-35.9375
-27.7095
-19.9099
-12.5249
-5.55507
0.981453
7.05274
12.5639
17.4875
21.4511
100.183
94.8256
88.808
81.9103
73.8348
64.6038
54.3122
43.2101
30.5995
15.7062
-0.757243
-18.52
-35.9801
-53.005
-69.9095
-87.1112
-104.153
-121.278
-134.823
-140.906
-139.141
-131.833
-122.135
-111.701
-101.183
-90.9266
-81.1431
-71.728
-62.5922
-53.7677
-45.327
-37.3104
-29.7155
-22.5308
-15.7561
-9.40174
-3.48977
1.95102
6.85859
11.2188
14.8022
81.4768
76.9242
72.0159
66.4978
60.1042
52.8736
44.8842
36.2961
26.6328
15.3046
2.74774
-10.8805
-24.4542
-37.8095
-51.1294
-64.7175
-78.3131
-92.3201
-104.612
-112.538
-115.13
-112.855
-107.469
-100.442
-92.6037
-84.4485
-76.3275
-68.3115
-60.4006
-52.6716
-45.2082
-38.0647
-31.267
-24.8299
-18.7682
-13.0997
-7.84635
-3.03111
1.30831
5.16829
8.41585
65.3292
61.5168
57.5394
53.1386
48.0887
42.4406
36.2598
29.649
22.2916
13.7646
4.337
-5.90727
-16.2165
-26.4486
-36.7046
-47.1849
-57.7305
-68.7388
-78.9996
-86.8398
-91.3878
-92.3325
-90.373
-86.4798
-81.3656
-75.5276
-69.3621
-63.0362
-56.6058
-50.1908
-43.9031
-37.8162
-31.9765
-26.4186
-21.1708
-16.2574
-11.7006
-7.51904
-3.73546
-0.348932
2.56717
51.8158
48.674
45.4782
41.9796
38.0007
33.6001
28.8305
23.7577
18.1755
11.7957
4.78579
-2.81051
-10.5068
-18.1968
-25.9348
-33.8444
-41.8282
-50.2077
-58.3044
-65.1057
-69.9971
-72.4933
-72.7224
-71.1995
-68.3979
-64.7081
-60.4846
-55.9183
-51.0818
-46.1099
-41.13
-36.2297
-31.4686
-26.8934
-22.5418
-18.4435
-14.6217
-11.0934
-7.87436
-4.96383
-2.40161
41.2248
38.6238
36.0608
33.2609
30.096
26.6319
22.9093
18.9716
14.6832
9.85151
4.58525
-1.09282
-6.86652
-12.6612
-18.5042
-24.467
-30.4809
-36.7809
-42.9865
-48.4865
-52.8847
-55.7566
-57.0171
-56.9031
-55.6816
-53.6106
-50.9614
-47.9021
-44.4954
-40.8631
-37.1271
-33.3755
-29.6713
-26.0646
-22.5966
-19.2992
-16.1965
-13.306
-10.641
-8.20373
-6.0171
33.1742
30.9999
28.9205
26.6454
24.0866
21.312
18.3527
15.2384
11.8782
8.14205
4.10438
-0.221432
-4.6239
-9.05053
-13.515
-18.0586
-22.6334
-27.4021
-32.1406
-36.4721
-40.1458
-42.8393
-44.4203
-44.9895
-44.6849
-43.662
-42.1114
-40.1644
-37.8657
-35.3129
-32.6091
-29.8319
-27.0395
-24.2793
-21.5907
-19.0046
-16.5448
-14.2283
-12.0677
-10.0681
-8.24492
27.0006
25.1733
23.4678
21.5962
19.4997
17.2446
14.8548
12.3509
9.67118
6.72696
3.57142
0.213669
-3.20079
-6.63442
-10.0934
-13.6013
-17.1223
-20.769
-24.404
-27.7865
-30.756
-33.0788
-34.6331
-35.4601
-35.6281
-35.2271
-34.3861
-33.2013
-31.7003
-29.956
-28.0495
-26.0442
-23.9891
-21.9249
-19.8863
-17.9009
-15.9904
-14.1706
-12.4535
-10.8458
-9.35885
22.1895
20.6479
19.2359
17.6805
15.9445
14.0897
12.1349
10.095
7.92769
5.57189
3.06701
0.420131
-2.26607
-4.96416
-7.67635
-10.4155
-13.1548
-15.9715
-18.7777
-21.4155
-23.7804
-25.7046
-27.0915
-27.9576
-28.3366
-28.2805
-27.8751
-27.1885
-26.2366
-25.0718
-23.755
-22.3352
-20.8512
-19.3361
-17.8183
-16.3213
-14.8634
-13.4589
-12.1186
-10.8496
-9.66082
18.3906
17.0864
15.9085
14.6054
13.1555
11.6155
9.99991
8.32013
6.54696
4.63822
2.62385
0.509922
-1.6296
-3.77422
-5.92395
-8.0854
-10.2379
-12.4346
-14.617
-16.6789
-18.5509
-20.1126
-21.2921
-22.0963
-22.5425
-22.6612
-22.5098
-22.1361
-21.5492
-20.7856
-19.89
-18.8991
-17.8423
-16.7456
-15.6313
-14.5183
-13.4217
-12.3536
-11.3232
-10.3373
-9.40324
15.3569
14.2509
13.2619
12.1627
10.9432
9.65411
8.30736
6.9117
5.44709
3.88438
2.24683
0.539885
-1.18218
-2.90376
-4.62369
-6.34491
-8.05127
-9.77947
-11.4892
-13.1076
-14.5876
-15.8426
-16.8203
-17.5247
-17.9652
-18.1604
-18.1495
-17.9663
-17.6157
-17.1235
-16.5217
-15.8374
-15.0925
-14.3066
-13.497
-12.6783
-11.8627
-11.0598
-10.2773
-9.52116
-8.79764
12.9109
11.9709
11.1359
10.2034
9.17131
8.08498
6.95411
5.78575
4.56627
3.27562
1.93215
0.540861
-0.857797
-2.25175
-3.63924
-5.02111
-6.38462
-7.75512
-9.10421
-10.3808
-11.5526
-12.5568
-13.3562
-13.9538
-14.3554
-14.5732
-14.6344
-14.5632
-14.3624
-14.0502
-13.6497
-13.1806
-12.6591
-12.0997
-11.5156
-10.9179
-10.316
-9.71751
-9.12871
-8.55452
-8.00029
10.922
10.1217
9.41304
8.61805
7.74003
6.81913
5.86353
4.87908
3.85671
2.78273
1.67187
0.528723
-0.616177
-1.75334
-2.88079
-3.99816
-5.09541
-6.19005
-7.26163
-8.27386
-9.20432
-10.007
-10.6559
-11.1539
-11.505
-11.7176
-11.8111
-11.8033
-11.6958
-11.5016
-11.2375
-10.9178
-10.5543
-10.1579
-9.73839
-9.30416
-8.86237
-8.41899
-7.9789
-7.54605
-7.12508
9.29283
8.61044
8.0063
7.32555
6.57509
5.79036
4.97837
4.14417
3.28192
2.38244
1.45766
0.511826
-0.431767
-1.36558
-2.28761
-3.19688
-4.08543
-4.96541
-5.82183
-6.62864
-7.37012
-8.01244
-8.53753
-8.94829
-9.2478
-9.44237
-9.54608
-9.57201
-9.52147
-9.40385
-9.23138
-9.01451
-8.76201
-8.48184
-8.18129
-7.86671
-7.54351
-7.21626
-6.88877
-6.56408
-6.24625
7.94972
7.36709
6.8499
6.26466
5.62051
4.94866
4.25527
3.54482
2.81376
2.05611
1.28166
0.494277
-0.288085
-1.05939
-1.81772
-2.56183
-3.28543
-3.99695
-4.6853
-5.33162
-5.92483
-6.43992
-6.86451
-7.20147
-7.4534
-7.62516
-7.72725
-7.76946
-7.75293
-7.68457
-7.57338
-7.42708
-7.25212
-7.05445
-6.83946
-6.61194
-6.37596
-6.135
-5.89199
-5.64927
-5.41034
6.83611
6.33808
5.89362
5.38864
4.83358
4.25589
3.6611
3.05326
2.43047
1.78904
1.13705
0.477996
-0.174156
-0.814541
-1.44141
-2.05346
-2.64571
-3.22404
-3.78019
-4.30043
-4.77695
-5.19119
-5.5348
-5.81055
-6.0207
-6.16916
-6.26386
-6.31226
-6.31538
-6.27843
-6.20808
-6.11008
-5.98924
-5.84998
-5.69635
-5.53193
-5.35981
-5.1826
-5.0026
-4.82152
-4.64242
5.90812
5.48199
5.09864
4.66141
4.18136
3.68261
3.17026
2.64801
2.11514
1.56958
1.01805
0.463718
-0.0825098
-0.61669
-1.13727
-1.64299
-2.12995
-2.60226
-3.05375
-3.47441
-3.85874
-4.19295
-4.47152
-4.69706
-4.87158
-4.99827
-5.08322
-5.13218
-5.14611
-5.12897
-5.08577
-5.02083
-4.93776
-4.83988
-4.73024
-4.61153
-4.48608
-4.35589
-4.22272
-4.08783
-3.95387
5.13138
4.76646
4.43465
4.05483
3.63818
3.20593
2.76282
2.31232
1.85453
1.38852
0.919931
0.45159
-0.00792215
-0.455409
-0.889519
-1.30913
-1.71118
-2.09858
-2.46673
-2.80833
-3.11955
-3.39011
-3.6165
-3.80112
-3.94576
-4.05307
-4.12777
-4.17434
-4.19368
-4.18885
-4.16365
-4.12134
-4.06468
-3.99615
-3.91808
-3.83249
-3.74116
-3.64561
-3.54719
-3.44684
-3.34682
4.47868
4.16598
3.87779
3.54675
3.18387
2.80783
2.42313
2.03302
1.63822
1.23855
0.838801
0.441473
0.0533452
-0.322992
-0.686388
-1.03588
-1.3691
-1.68813
-1.98955
-2.26808
-2.52107
-2.74089
-2.92539
-3.07678
-3.19662
-3.28714
-3.35204
-3.39483
-3.41637
-3.41902
-3.40571
-3.37891
-3.34073
-3.29308
-3.23771
-3.17618
-3.10983
-3.03982
-2.96722
-2.89268
-2.81816
3.92835
3.66024
3.40908
3.1196
2.80245
2.47408
2.13881
1.79973
1.45795
1.11387
0.771511
0.43311
0.104031
-0.213633
-0.518927
-0.811053
-1.08821
-1.35191
-1.59966
-1.82764
-2.03407
-2.21331
-2.36416
-2.48859
-2.58798
-2.6642
-2.72019
-2.75873
-2.78058
-2.78763
-2.7821
-2.76593
-2.74073
-2.70797
-2.66898
-2.62495
-2.57693
-2.5258
-2.47238
-2.41715
-2.36178
3.463
3.23301
3.01335
2.75935
2.48116
2.19332
1.89999
1.60416
1.30718
1.00982
0.715507
0.426211
0.146182
-0.122898
-0.380254
-0.625259
-0.85656
-1.07531
-1.27968
-1.46697
-1.63606
-1.78274
-1.90649
-2.00905
-2.09164
-2.15583
-2.20396
-2.23824
-2.25937
-2.26883
-2.26837
-2.25948
-2.2434
-2.22128
-2.19414
-2.16291
-2.12837
-2.09122
-2.0521
-2.01133
-1.97036
3.06856
2.87118
2.67837
2.45469
2.20975
1.95644
1.69878
1.43967
1.18064
0.922674
0.668722
0.420491
0.181354
-0.04735
-0.265015
-0.471172
-0.664833
-0.846901
-1.0161
-1.17053
-1.30953
-1.43003
-1.53192
-1.61673
-1.68554
-1.73966
-1.78098
-1.81126
-1.83113
-1.84177
-1.84455
-1.84063
-1.83098
-1.81648
-1.79794
-1.77607
-1.75148
-1.7247
-1.69625
-1.66635
-1.63622
2.73362
2.56415
2.39424
2.19649
1.97994
1.75607
1.5288
1.30092
1.07409
0.849438
0.629475
0.415687
0.210746
0.0156971
-0.169003
-0.343032
-0.505701
-0.657749
-0.798315
-0.926109
-1.04081
-1.14018
-1.22439
-1.29479
-1.3523
-1.39805
-1.43354
-1.4602
-1.47858
-1.48963
-1.49443
-1.49387
-1.48874
-1.47972
-1.46744
-1.45244
-1.43521
-1.41616
-1.39569
-1.37395
-1.352
2.44886
2.30326
2.1529
1.9773
1.78499
1.58623
1.38485
1.18358
0.984117
0.787667
0.596391
0.411562
0.235285
0.0683617
-0.0888903
-0.236282
-0.373363
-0.500771
-0.617963
-0.724108
-0.819121
-0.901396
-0.971289
-1.02996
-1.07821
-1.117
-1.14755
-1.17099
-1.18783
-1.19882
-1.20481
-1.20653
-1.20457
-1.19948
-1.19174
-1.18179
-1.17001
-1.15671
-1.14223
-1.12664
-1.11086
2.20666
2.08146
1.94775
1.79106
1.61941
1.44203
1.2627
1.08409
0.907896
0.735361
0.568333
0.407897
0.255694
0.11232
-0.0220324
-0.147291
-0.263202
-0.370338
-0.468403
-0.556904
-0.635927
-0.704342
-0.762606
-0.81172
-0.852385
-0.885402
-0.911769
-0.932408
-0.947748
-0.958409
-0.965061
-0.968274
-0.968529
-0.966252
-0.96183
-0.955601
-0.947864
-0.938864
-0.928864
-0.917918
-0.906807
2.00074
1.89292
1.7734
1.63279
1.47871
1.3195
1.15891
0.99955
0.843127
0.690863
0.544344
0.404476
0.272522
0.148894
0.0336771
-0.0731631
-0.171528
-0.261955
-0.344334
-0.418424
-0.484431
-0.54158
-0.59038
-0.631693
-0.666125
-0.694354
-0.717195
-0.735397
-0.749332
-0.759504
-0.766448
-0.770617
-0.772393
-0.772116
-0.77009
-0.766584
-0.761833
-0.75603
-0.749388
-0.741931
-0.734336
1.82593
1.73286
1.62532
1.49831
1.35911
1.2153
1.07061
0.927588
0.787928
0.652821
0.523628
0.401097
0.286175
0.179117
0.0799054
-0.0115875
-0.095392
-0.172024
-0.241519
-0.303819
-0.359211
-0.407186
-0.448273
-0.483211
-0.512524
-0.536787
-0.556667
-0.572774
-0.585432
-0.595051
-0.602059
-0.606817
-0.609633
-0.610775
-0.610487
-0.60898
-0.606443
-0.603028
-0.598907
-0.594085
-0.58915
1.67803
1.59735
1.49982
1.38414
1.25737
1.12651
0.995251
0.866082
0.740645
0.62007
0.505515
0.397583
0.296971
0.203803
0.117972
0.0392682
-0.0324447
-0.0976753
-0.156568
-0.209203
-0.255915
-0.296398
-0.331174
-0.360876
-0.385957
-0.406908
-0.424275
-0.438559
-0.45004
-0.459053
-0.465944
-0.471003
-0.474476
-0.476579
-0.477507
-0.477428
-0.476492
-0.47482
-0.472554
-0.469684
-0.466722
1.5536
1.4833
1.39408
1.28769
1.17109
1.05085
0.930702
0.813111
0.699659
0.591386
0.489234
0.393649
0.305097
0.223586
0.148938
0.08088
0.0191965
-0.0366155
-0.0867852
-0.131492
-0.171106
-0.205471
-0.235093
-0.260513
-0.282125
-0.300343
-0.31562
-0.328366
-0.338821
-0.347263
-0.353969
-0.359173
-0.363076
-0.36585
-0.367653
-0.368618
-0.368867
-0.368496
-0.367622
-0.366225
-0.364754
1.44974
1.3881
1.30583
1.20711
1.09881
0.987158
0.875945
0.76769
0.663986
0.56583
0.473994
0.388768
0.310388
0.238721
0.17349
0.114353
0.0610251
0.0130121
-0.0299673
-0.0681533
-0.101929
-0.131246
-0.156586
-0.178415
-0.197077
-0.212932
-0.226355
-0.237689
-0.247142
-0.254945
-0.261323
-0.266467
-0.270539
-0.27368
-0.276015
-0.277654
-0.278694
-0.27921
-0.2793
-0.278939
-0.278513
1.364
1.30911
1.23221
1.1396
1.03816
0.93375
0.830058
0.729546
0.633779
0.543739
0.460128
0.383179
0.313005
0.249381
0.191941
0.140252
0.0939282
0.0524431
0.015446
-0.0173625
-0.0463728
-0.0716176
-0.0935376
-0.112525
-0.128872
-0.142882
-0.154866
-0.165104
-0.173776
-0.181074
-0.187183
-0.19226
-0.196439
-0.199837
-0.202556
-0.204686
-0.206306
-0.207478
-0.208284
-0.208699
-0.209048
1.29458
1.24408
1.16998
1.08086
0.984029
0.885243
0.788055
0.694664
0.60635
0.523841
0.447607
0.377763
0.314336
0.257104
0.205739
0.159837
0.119015
0.0827639
0.0506925
0.0224449
-0.00239507
-0.023955
-0.0426714
-0.0589042
-0.0729273
-0.0850135
-0.0954291
-0.104412
-0.112117
-0.118703
-0.124321
-0.129098
-0.13314
-0.13654
-0.139381
-0.141734
-0.143662
-0.145215
-0.146454
-0.147363
-0.148198
1.24051
1.1931
1.12013
1.03175
0.936069
0.839297
0.745363
0.656567
0.574067
0.498304
0.42935
0.366937
0.310723
0.260237
0.214996
0.17453
0.138445
0.106302
0.0777679
0.0525465
0.0302933
0.01088
-0.00605118
-0.0207874
-0.0335622
-0.0446127
-0.0541688
-0.0624382
-0.0695677
-0.0757032
-0.0809789
-0.0855089
-0.0893907
-0.0927079
-0.0955346
-0.0979334
-0.0999603
-0.101659
-0.103082
-0.104224
-0.105267
1.20098
1.15829
1.08937
1.00388
0.909684
0.813177
0.718883
0.629732
0.547424
0.47277
0.406012
0.346911
0.295007
0.249641
0.210089
0.175622
0.145582
0.119323
0.0963315
0.0761844
0.0584896
0.0430376
0.0294784
0.0175631
0.00710114
-0.00208938
-0.0101761
-0.0173065
-0.0235836
-0.0291081
-0.0339729
-0.0382577
-0.0420314
-0.0453539
-0.0482789
-0.0508525
-0.0531165
-0.0551048
-0.0568543
-0.0583723
-0.0597549
1.17485
1.13606
1.07237
0.993324
0.905871
0.815457
0.725981
0.64008
0.559419
0.48498
0.417246
0.356307
0.302022
0.254053
0.211963
0.175252
0.143413
0.115915
0.0922607
0.0719773
0.0546
0.0397821
0.0271361
0.0163635
0.00719777
-0.000607165
-0.0072655
-0.0129578
-0.0178241
-0.0219882
-0.0255557
-0.0286137
-0.0312347
-0.0334791
-0.0353984
-0.0370352
-0.0384259
-0.0396017
-0.0405858
-0.0414103
-0.0420571
1.16102
1.11201
1.03434
0.944476
0.852333
0.763556
0.680942
0.60557
0.537587
0.476672
0.422303
0.373869
0.330758
0.292387
0.258223
0.227785
0.20065
0.176445
0.154867
0.135659
0.118585
0.103428
0.0899201
0.0778927
0.0672083
0.0577257
0.0493102
0.0418415
0.0352186
0.0293477
0.0241429
0.0195275
0.015434
0.0118024
0.00857978
0.00571905
0.0031802
0.000922979
-0.00106968
-0.00287687
-0.00432019
103.121
71.1458
53.5132
50.2839
45.8878
40.1482
35.4655
31.752
28.4664
25.5074
22.8911
20.5782
18.5165
16.6717
15.019
13.5364
12.2041
11.0054
9.92584
8.9529
8.07549
7.28384
6.56932
5.92423
5.34173
4.81567
4.34057
3.91151
3.52404
3.17417
2.85831
2.57318
2.31588
2.08372
1.87431
1.68549
1.51527
1.36188
1.2237
1.09926
0.987232
0.886417
0.795724
0.714155
0.640826
0.574911
0.515688
0.462482
0.414687
0.37176
0.333209
0.298568
0.267449
0.239472
0.214304
0.191655
0.171231
0.152816
0.13616
0.121077
0.107366
0.0948684
0.0834171
0.0728782
0.0630941
0.0539729
0.0452406
0.0371439
0.0283057
0.0217843
0.00751732
0.0116687
-0.0487225
0.0712359
100.054
71.1719
53.6405
50.1907
45.8413
40.1246
35.4421
31.7339
28.4535
25.4972
22.8829
20.5716
18.5113
16.6674
15.0155
13.5335
12.2017
11.0034
9.92424
8.95158
8.0744
7.28295
6.56859
5.92363
5.34123
4.81527
4.34025
3.91125
3.52383
3.17401
2.85817
2.57308
2.3158
2.08366
1.87427
1.68546
1.51525
1.36187
1.2237
1.09926
0.987242
0.886431
0.79574
0.714173
0.640846
0.574932
0.51571
0.462504
0.414709
0.371782
0.33323
0.29859
0.26747
0.239492
0.214324
0.191674
0.17125
0.152833
0.136177
0.121093
0.107381
0.0948829
0.0834309
0.0728914
0.0631065
0.0539849
0.045252
0.0371547
0.0283183
0.0217922
0.00754521
0.0116525
-0.0485079
0.0709581
95.6849
71.1027
53.6989
49.9211
45.7154
40.0665
35.3874
31.691
28.4231
25.4738
22.8642
20.5567
18.4994
16.6578
15.0078
13.5272
12.1966
10.9992
9.9208
8.94878
8.07211
7.28109
6.56707
5.92241
5.34025
4.81448
4.33962
3.91075
3.52344
3.1737
2.85795
2.57291
2.31568
2.08358
1.87422
1.68543
1.51525
1.36188
1.22372
1.0993
0.987285
0.88648
0.795793
0.714229
0.640903
0.574991
0.515769
0.462562
0.414767
0.371838
0.333285
0.298643
0.267521
0.239542
0.214372
0.19172
0.171294
0.152875
0.136217
0.121131
0.107417
0.094917
0.0834633
0.072922
0.0631356
0.0540125
0.0452786
0.0371795
0.0283465
0.0218112
0.00760466
0.0116238
-0.0480546
0.0703738
90.2892
70.4451
53.6331
49.4634
45.4619
39.9459
35.2833
31.6089
28.3653
25.4303
22.8299
20.5298
18.4783
16.6411
14.9944
13.5165
12.188
10.9923
9.91524
8.9443
8.06852
7.27821
6.56478
5.92059
5.33881
4.81335
4.33875
3.91008
3.52294
3.17334
2.85769
2.57274
2.31558
2.08353
1.87422
1.68547
1.51531
1.36196
1.22382
1.0994
0.987397
0.886596
0.795912
0.714349
0.641023
0.57511
0.515885
0.462676
0.414877
0.371945
0.333387
0.298742
0.267616
0.239632
0.214458
0.191802
0.171372
0.152949
0.136287
0.121197
0.10748
0.0949761
0.0835192
0.0729747
0.0631855
0.0540598
0.0453241
0.0372219
0.028394
0.0218442
0.00770099
0.0115852
-0.0473304
0.0694388
83.994
68.9228
53.3789
48.7795
45.0023
39.7156
35.1011
31.4629
28.2613
25.3533
22.7699
20.4833
18.4422
16.6128
14.9721
13.4989
12.174
10.9813
9.90647
8.93736
8.06303
7.27388
6.56138
5.91793
5.33675
4.81178
4.33756
3.9092
3.5223
3.1729
2.8574
2.57258
2.31551
2.08354
1.87429
1.68558
1.51545
1.36213
1.224
1.0996
0.9876
0.886802
0.796118
0.714554
0.641224
0.575306
0.516075
0.462859
0.415054
0.372114
0.333549
0.298896
0.267762
0.239772
0.214591
0.191927
0.171491
0.153062
0.136393
0.121297
0.107574
0.0950646
0.0836026
0.0730531
0.0632596
0.0541297
0.0453913
0.0372843
0.0284634
0.0218935
0.00783914
0.0115373
-0.0462986
0.0680967
76.9873
66.3481
52.7612
47.811
44.2495
39.3082
34.8006
31.2188
28.0822
25.2208
22.6672
20.4033
18.3802
16.5645
14.9342
13.469
12.1505
10.9627
9.89183
8.92581
8.05394
7.26674
6.5558
5.91359
5.3334
4.80921
4.33561
3.90776
3.52126
3.17217
2.85692
2.57229
2.31537
2.08352
1.87436
1.68572
1.51564
1.36236
1.22426
1.09987
0.987882
0.887089
0.796405
0.714838
0.641502
0.575577
0.516338
0.463112
0.415297
0.372346
0.33377
0.299107
0.267962
0.239961
0.21477
0.192096
0.171651
0.153212
0.136535
0.12143
0.107699
0.0951818
0.0837128
0.0731566
0.063357
0.0542215
0.0454794
0.0373659
0.0285544
0.0219582
0.00802142
0.0114787
-0.0449269
0.0662882
69.4844
62.6248
51.5424
46.4919
43.1246
38.6382
34.3276
30.8349
27.7912
25.0027
22.4974
20.2698
18.2757
16.4823
14.8691
13.4175
12.1096
10.9302
9.86604
8.90533
8.03769
7.25388
6.54563
5.90558
5.32711
4.80431
4.33182
3.90485
3.51906
3.17053
2.85573
2.57146
2.31482
2.08319
1.8742
1.68569
1.51572
1.36251
1.22447
1.10012
0.988161
0.887387
0.796714
0.715151
0.641815
0.575887
0.516641
0.463406
0.415581
0.37262
0.334032
0.299356
0.268199
0.240186
0.214983
0.192297
0.171841
0.15339
0.136703
0.121587
0.107847
0.0953202
0.0838427
0.0732783
0.0634714
0.0543291
0.0455827
0.0374614
0.0286623
0.0220336
0.00824625
0.0114055
-0.0431923
0.0639595
61.7615
57.8289
49.4952
44.7297
41.563
37.6097
33.6115
30.2615
27.3443
24.6624
22.231
20.058
18.1073
16.3482
14.7617
13.3312
12.0403
10.8745
9.82115
8.86919
8.00862
7.2305
6.52686
5.89054
5.31509
4.79472
4.3242
3.89882
3.51431
3.16682
2.85286
2.56926
2.31316
2.08197
1.87332
1.68509
1.51533
1.3623
1.22438
1.10014
0.988258
0.887542
0.796912
0.715381
0.642065
0.57615
0.51691
0.463677
0.415851
0.372884
0.334289
0.299605
0.268438
0.240415
0.215201
0.192504
0.172038
0.153576
0.136878
0.121751
0.108001
0.0954648
0.0839784
0.0734055
0.0635911
0.0544417
0.0456914
0.0375616
0.028779
0.0221122
0.00850908
0.0113121
-0.0410862
0.0610751
54.0857
52.1896
46.4746
42.4032
39.5134
36.1333
32.567
29.4382
26.6908
24.1559
21.8323
19.7385
17.8506
16.1415
14.5944
13.1953
11.9297
10.7843
9.74759
8.80915
7.9596
7.1905
6.49424
5.86395
5.29345
4.77713
4.30994
3.88727
3.50499
3.15932
2.84684
2.56445
2.30934
2.07895
1.87096
1.68325
1.51392
1.36123
1.2236
1.09958
0.987875
0.8873
0.796781
0.715336
0.642088
0.576224
0.517022
0.463817
0.416011
0.373057
0.334469
0.29979
0.268623
0.240598
0.21538
0.192677
0.172205
0.153736
0.137031
0.121896
0.108138
0.0955941
0.0841005
0.0735204
0.0636999
0.0545445
0.0457921
0.0376544
0.028894
0.0221842
0.00880312
0.0111925
-0.038618
0.0576306
46.5999
45.9914
42.4713
39.391
36.9253
34.1372
31.1013
28.2917
25.7717
23.4307
21.2576
19.2759
17.4762
15.8377
14.3468
12.9927
11.7634
10.6476
9.63498
8.71627
7.88295
7.12721
6.44197
5.8208
5.25784
4.74777
4.28574
3.86736
3.48862
3.14588
2.83583
2.55544
2.30199
2.07296
1.8661
1.67932
1.51076
1.35869
1.22157
1.09797
0.986606
0.886311
0.796019
0.714759
0.641658
0.575915
0.516809
0.46368
0.415934
0.373027
0.334476
0.299825
0.268678
0.240668
0.215462
0.192766
0.172299
0.153831
0.137126
0.12199
0.10823
0.095683
0.0841866
0.0736032
0.06378
0.0546217
0.0458707
0.0377272
0.0289963
0.0222401
0.0091213
0.011042
-0.0358191
0.0536633
39.286
39.4662
37.6066
35.619
33.741
31.5671
29.1268
26.7375
24.5176
22.4254
20.453
18.6254
16.9467
15.4057
13.9932
12.702
11.5238
10.4496
9.47103
8.58028
7.76998
7.03327
6.3638
5.75571
5.20363
4.70262
4.24814
3.83606
3.46258
3.12423
2.81784
2.54051
2.2896
2.0627
1.85761
1.67231
1.50497
1.35393
1.21765
1.09475
0.983976
0.884164
0.794271
0.713341
0.640512
0.574993
0.516071
0.463094
0.415471
0.372666
0.334196
0.299612
0.268519
0.240553
0.215381
0.192713
0.172269
0.153817
0.137126
0.122
0.108248
0.0957062
0.0842143
0.0736341
0.0638142
0.0546582
0.0459142
0.0377687
0.0290766
0.0222721
0.00945725
0.0108585
-0.032742
0.0492553
32.0648
32.761
32.0809
31.1049
29.9198
28.3887
26.5777
24.6922
22.8522
21.0706
19.355
17.7316
16.2152
14.8057
13.4999
12.2952
11.1874
10.1709
9.23957
8.38773
7.60955
6.89942
6.25199
5.66223
5.12541
4.63713
4.19329
3.7901
3.42407
3.09196
2.7908
2.51786
2.27064
2.04683
1.84433
1.66121
1.4957
1.34618
1.21119
1.08937
0.97949
0.88043
0.791166
0.710762
0.638372
0.573219
0.514603
0.46188
0.414469
0.37184
0.333516
0.299054
0.268062
0.240179
0.215076
0.192465
0.172068
0.153655
0.136996
0.121896
0.108165
0.0956415
0.0841648
0.0735971
0.0637888
0.0546424
0.0459128
0.0377709
0.0291284
0.0222754
0.00980633
0.0106437
-0.0294591
0.0445295
24.9125
25.9803
26.1197
25.9695
25.4819
24.6038
23.4287
22.0975
20.7072
19.2986
17.8974
16.5327
15.2266
13.9893
12.8251
11.7365
10.7239
9.78566
8.91901
8.12055
7.38656
6.71307
6.09609
5.53166
5.01596
4.5453
4.11619
3.72534
3.36963
3.04619
2.7523
2.48548
2.24339
2.0239
1.82504
1.64497
1.48204
1.33469
1.20153
1.08124
0.97266
0.87469
0.786344
0.706712
0.634972
0.570365
0.512207
0.45987
0.412783
0.370426
0.33233
0.29806
0.267228
0.23948
0.214491
0.191974
0.171657
0.153311
0.136708
0.121654
0.107963
0.095472
0.0840239
0.0734805
0.0636941
0.0545666
0.0458602
0.037729
0.029148
0.0222482
0.0101654
0.0104029
-0.0260551
0.0396347
17.9027
19.2419
19.9483
20.4161
20.541
20.2784
19.713
18.9455
18.0463
17.0611
16.0252
14.971
13.9249
12.9046
11.9215
10.9837
10.0963
9.26216
8.48197
7.75541
7.08121
6.45752
5.88204
5.35223
4.86544
4.41894
4.01004
3.6361
3.29458
2.98302
2.69912
2.44067
2.20563
1.99207
1.7982
1.62233
1.46294
1.31858
1.18792
1.06976
0.962969
0.866509
0.779437
0.700881
0.630049
0.566209
0.508698
0.456906
0.41028
0.368312
0.330544
0.29655
0.265952
0.238401
0.213578
0.191201
0.171004
0.152757
0.136239
0.121256
0.107626
0.0951863
0.0837827
0.0732773
0.063525
0.0544268
0.0457541
0.0376416
0.0291352
0.022192
0.0105324
0.0101449
-0.0226196
0.0347286
11.2045
12.7195
13.805
14.7025
15.3056
15.5676
15.5452
15.3061
14.8972
14.3557
13.7165
13.0114
12.2677
11.5067
10.7449
9.99472
9.26587
8.56516
7.89716
7.26478
6.66958
6.1121
5.59212
5.10883
4.66101
4.24718
3.86568
3.51471
3.19247
2.89709
2.62678
2.37975
2.1543
1.94881
1.76171
1.59156
1.43697
1.29666
1.16942
1.05413
0.949761
0.855347
0.770001
0.692904
0.623302
0.560501
0.503868
0.452819
0.40682
0.365382
0.328062
0.294447
0.264169
0.236889
0.212296
0.190113
0.17008
0.151972
0.135572
0.120689
0.107144
0.0947764
0.0834351
0.0729832
0.0632787
0.0542216
0.0455937
0.0375094
0.0290908
0.0221099
0.0109055
0.00988075
-0.019238
0.0299585
5.05831
6.64776
7.95383
9.11563
10.0474
10.7065
11.1223
11.3335
11.3677
11.2494
11.0057
10.6629
10.2451
9.77329
9.26517
8.7358
8.19761
7.66056
7.13244
6.61914
6.12502
5.65314
5.2055
4.78327
4.38694
4.0165
3.67153
3.35131
3.05494
2.78133
2.52932
2.29769
2.0852
1.8906
1.71267
1.55023
1.40213
1.26728
1.14464
1.03322
0.932114
0.840449
0.757419
0.682274
0.614319
0.552908
0.497447
0.447388
0.402224
0.361492
0.324767
0.291657
0.261805
0.234884
0.210596
0.18867
0.168856
0.150933
0.134689
0.119939
0.106506
0.0942353
0.0829766
0.0725956
0.0629539
0.053951
0.0453803
0.0373345
0.0290174
0.0220069
0.0112828
0.00962307
-0.0159847
0.0254477
-0.219588
1.33762
2.71847
3.99416
5.10332
6.01264
6.7325
7.28008
7.66753
7.90759
8.01646
8.01208
7.91219
7.73372
7.49249
7.20296
6.878
6.5288
6.1649
5.79425
5.42336
5.05744
4.70058
4.35588
4.02558
3.71125
3.41387
3.13397
2.8717
2.62689
2.3992
2.18809
1.99289
1.81286
1.64721
1.49511
1.35571
1.22818
1.11171
1.00548
0.908743
0.820753
0.740818
0.668278
0.602516
0.542952
0.489047
0.440298
0.396238
0.356437
0.320496
0.288048
0.258753
0.232303
0.208413
0.186823
0.167293
0.149608
0.133567
0.118988
0.105701
0.0935538
0.0824009
0.0721106
0.0625486
0.0536146
0.0451146
0.0371191
0.028917
0.0218883
0.0116614
0.00938571
-0.012919
0.0212887
-4.15989
-2.72835
-1.39835
-0.140652
1.00451
2.01383
2.88746
3.62946
4.2421
4.72926
5.09809
5.35804
5.51967
5.59419
5.59312
5.52788
5.40945
5.24813
5.05332
4.83346
4.59598
4.34727
4.09275
3.83694
3.5835
3.33536
3.09478
2.86348
2.64268
2.43321
2.23554
2.0499
1.87628
1.71453
1.56432
1.42526
1.29688
1.17864
1.06999
0.970356
0.879171
0.795857
0.719858
0.650631
0.587657
0.530439
0.478507
0.431419
0.388756
0.350131
0.315179
0.283564
0.25497
0.229111
0.205718
0.184547
0.165371
0.147984
0.132195
0.117828
0.104721
0.092726
0.0817032
0.0715244
0.06206
0.0532103
0.0447947
0.0368624
0.0287877
0.021756
0.0120303
0.00917905
-0.0100963
0.0175476
-6.70161
-5.45104
-4.25265
-3.09969
-2.01734
-1.02112
-0.11531
0.697565
1.41461
2.03447
2.55821
2.98889
3.3311
3.59063
3.77426
3.88948
3.94415
3.94623
3.90354
3.82358
3.71337
3.57936
3.42733
3.26242
3.08907
2.91109
2.73166
2.55342
2.37846
2.20845
2.04467
1.88803
1.73919
1.59853
1.46628
1.34246
1.22699
1.11969
1.0203
0.928489
0.843905
0.766161
0.694857
0.629587
0.569945
0.515532
0.465962
0.42086
0.379869
0.34265
0.308881
0.27826
0.250503
0.225347
0.202547
0.181874
0.163117
0.146084