/*--------------------------------*- C++ -*----------------------------------*\
  =========                 |
  \\      /  F ield         | OpenFOAM: The Open Source CFD Toolbox
   \\    /   O peration     | Website:  https://openfoam.org
    \\  /    A nd           | Version:  11
     \\/     M anipulation  |
\*---------------------------------------------------------------------------*/
FoamFile
{
    format      ascii;
    class       surfaceScalarField;
    location    "300";
    object      phi;
}
// * * * * * * * * * * * * * * * * * * * * * * * * * * * * * * * * * * * * * //

dimensions      [0 3 -1 0 0 0 0];

internalField   nonuniform List<scalar> 
21876
(
0.0052081
-0.00520271
-4.917e-06
0.0107844
-0.00557614
0.0164481
-0.00566404
0.0214106
-0.00496314
0.0264976
-0.00508751
0.0306357
-0.00413848
0.0328312
-0.00219595
0.0314866
0.0013444
0.0308385
0.000647841
0.0312989
-0.000460604
0.0326316
-0.00133278
0.0362835
-0.00365196
0.0400442
-0.00376077
0.0424262
-0.00238203
0.0396756
0.00275065
0.0322422
0.00743335
0.0212042
0.011038
0.0170761
0.00412806
0.0169791
9.70703e-05
0.0175096
-0.00053059
0.0180588
-0.000549126
0.0184204
-0.000361609
0.0186555
-0.000235196
0.0188963
-0.000240728
0.0191993
-0.000303078
0.0189066
0.000292693
0.0181295
0.000777113
0.0179179
0.000211679
0.0177265
0.000191314
0.0175641
0.000162492
0.0173988
0.000165254
0.0172066
0.000192238
0.0169799
0.000226649
0.0167111
0.000268844
0.0163886
0.000322481
0.0159933
0.00039526
0.0154956
0.000497755
0.0148442
0.000651339
0.0139827
0.00086157
0.0124835
0.00149919
0.00264075
0.00984272
0.00602427
-0.0112265
-8.08898e-07
0.0123685
-0.0119208
0.0187624
-0.0120584
0.0245766
-0.0107774
0.0302293
-0.0107401
0.0348518
-0.00876083
0.0378972
-0.00524112
0.0384424
0.000799225
0.0389187
0.000171627
0.0399933
-0.00153509
0.0417337
-0.00307313
0.0453134
-0.00723168
0.0488627
-0.00731004
0.0513006
-0.00481991
0.0508383
0.00321292
0.0472744
0.0109973
0.0389737
0.0193387
0.0330105
0.0100913
0.029668
0.0034395
0.0277693
0.00136809
0.026893
0.000327156
0.0265581
-2.66246e-05
0.0264284
-0.000105586
0.0264415
-0.00025381
0.0265926
-0.000454195
0.0263765
0.000508861
0.0257035
0.00145014
0.0253246
0.000590582
0.0249686
0.000547224
0.0246626
0.000468516
0.0243909
0.000436976
0.0241252
0.000457902
0.0238473
0.000504627
0.0235417
0.000574356
0.0231944
0.000669813
0.0227855
0.000804145
0.0222954
0.000987885
0.0216623
0.00128442
0.0209155
0.00160832
0.0196998
0.00271497
0.0053083
0.0170322
0.00703705
-0.018264
1.72052e-07
0.0143257
-0.0192099
0.0216265
-0.0193593
0.0283606
-0.0175114
0.0347517
-0.0171311
0.0402019
-0.014211
0.0441253
-0.00916435
0.0456875
-0.000762866
0.0468148
-0.00095559
0.0483761
-0.00309636
0.0505847
-0.00528164
0.054337
-0.010984
0.0581983
-0.0111712
0.0608128
-0.00743448
0.0602428
0.00378298
0.0573835
0.0138565
0.0510963
0.0256259
0.0458469
0.0153408
0.0422187
0.00706766
0.0394624
0.00412438
0.0376599
0.00212963
0.0366533
0.000979977
0.0360638
0.000483949
0.0357598
5.02171e-05
0.0356588
-0.000353216
0.0352111
0.00095657
0.0343684
0.00229281
0.0338714
0.00108765
0.0334314
0.000987172
0.0330356
0.00086434
0.0326723
0.000800217
0.0323147
0.000815531
0.0319445
0.00087489
0.0315456
0.00097318
0.0311014
0.00111406
0.0305881
0.0013174
0.0299818
0.0015942
0.0292217
0.0020445
0.0283034
0.00252663
0.0270129
0.00400552
0.00782068
0.0245005
0.00826455
-0.0265292
3.66745e-07
0.0166872
-0.0276328
0.0250259
-0.0276981
0.0327573
-0.0252429
0.0400108
-0.0243845
0.046332
-0.0205321
0.051225
-0.0140573
0.0538344
-0.00337218
0.0556554
-0.00277651
0.0577478
-0.00518871
0.060542
-0.00807579
0.0646167
-0.0150588
0.0687877
-0.0153422
0.0718132
-0.0104599
0.0715302
0.00406598
0.0684434
0.0169434
0.0622998
0.0317695
0.0571792
0.0204614
0.054047
0.0101998
0.0515937
0.00657767
0.0496742
0.00404917
0.0483885
0.00226573
0.0474987
0.00137375
0.0469167
0.000632198
0.04658
-1.65649e-05
0.0459447
0.00159195
0.044917
0.00332046
0.0442422
0.00176243
0.0436912
0.00153816
0.0431959
0.00135968
0.0427403
0.00125579
0.0422957
0.00126016
0.0418397
0.00133091
0.0413541
0.00145876
0.04082
0.0016481
0.0402116
0.0019258
0.0395005
0.00230532
0.0386287
0.00291626
0.0375669
0.0035885
0.0361761
0.00539631
0.0102858
0.0337109
0.00972675
-0.0362565
4.0748e-07
0.0194719
-0.0373781
0.0289962
-0.0372225
0.0378371
-0.0340838
0.0460891
-0.0326366
0.053401
-0.027844
0.0593972
-0.0200535
0.0632881
-0.00726306
0.0662056
-0.00569397
0.0689944
-0.00797749
0.0723716
-0.011453
0.0767209
-0.019408
0.0811068
-0.0197282
0.0844929
-0.013846
0.0847738
0.0037851
0.0818173
0.0198998
0.0754545
0.0381323
0.0696363
0.0262797
0.066291
0.0135451
0.0640694
0.00879925
0.0623657
0.00575284
0.061221
0.00341043
0.0604014
0.00219338
0.0598063
0.00122723
0.0594097
0.000380121
0.058735
0.00226657
0.0576398
0.00441573
0.0568419
0.00256035
0.0562051
0.00217497
0.0556277
0.00193704
0.0550949
0.00178856
0.0545803
0.00177476
0.0540565
0.00185476
0.0535016
0.00201363
0.0528948
0.00225491
0.0522091
0.0026115
0.0514133
0.00310112
0.0504566
0.00387299
0.0492933
0.00475177
0.0478798
0.00680977
0.0126678
0.0454978
0.0114628
-0.0477199
4.48454e-07
0.0227567
-0.048672
0.033652
-0.0481179
0.0437451
-0.0441769
0.0531367
-0.0420282
0.0615657
-0.0362731
0.0687824
-0.0272702
0.0740845
-0.0125652
0.0783895
-0.0099989
0.0820941
-0.0116821
0.0861636
-0.0155225
0.0908497
-0.024094
0.0954435
-0.0243219
0.0991783
-0.0175808
0.100215
0.00274866
0.097934
0.0221806
0.0918136
0.0442527
0.0851371
0.0329562
0.0808728
0.0178094
0.07829
0.0113821
0.0764882
0.00755464
0.0753888
0.00450986
0.0747005
0.00288167
0.0742371
0.00169063
0.0739438
0.000673445
0.0734173
0.00279304
0.0724476
0.00538547
0.0716604
0.00334753
0.0710374
0.00279796
0.0704645
0.0025099
0.0699252
0.00232787
0.0694017
0.0022983
0.068866
0.00239045
0.0682943
0.00258526
0.0676653
0.00288396
0.066953
0.00332384
0.0661256
0.00392844
0.0651452
0.00485348
0.0639561
0.00594086
0.0626249
0.00814094
0.0148443
0.0604485
0.0135305
-0.0612509
4.64344e-07
0.0266532
-0.0617949
0.0391536
-0.0606183
0.0506849
-0.0557082
0.0613816
-0.0527249
0.0710691
-0.0459606
0.0796149
-0.035816
0.0864058
-0.0193561
0.092318
-0.0159111
0.097201
-0.0165651
0.102127
-0.0204487
0.107255
-0.0292223
0.112093
-0.0291593
0.116187
-0.0216751
0.118068
0.000867865
0.116859
0.0233898
0.111623
0.0494884
0.10453
0.0400492
0.099185
0.0231544
0.0958471
0.0147199
0.0935808
0.00982093
0.0922177
0.00587305
0.0914339
0.00366545
0.0909736
0.00215092
0.0907182
0.000928818
0.0903288
0.00318251
0.0895426
0.00617163
0.0888376
0.00405254
0.0882981
0.00333741
0.0878123
0.00299573
0.0873473
0.00279286
0.0868912
0.0027544
0.0864189
0.00286275
0.0859058
0.00309833
0.0853308
0.00345897
0.0846712
0.00398347
0.0838979
0.00470179
0.0829908
0.00576053
0.081893
0.00703866
0.0807721
0.00926183
0.0166484
0.078968
0.0160046
-0.077256
4.76104e-07
0.0313069
-0.0770972
0.0457095
-0.075021
0.0589221
-0.0689208
0.0711269
-0.0649297
0.0822346
-0.0570683
0.0922212
-0.0458025
0.100555
-0.0276901
0.108201
-0.0235573
0.114498
-0.022862
0.120466
-0.0264169
0.126184
-0.0349395
0.13136
-0.0343353
0.135858
-0.0261733
0.138626
-0.00190061
0.138725
0.0232911
0.134964
0.0532492
0.128201
0.0468122
0.122044
0.029312
0.117831
0.0189328
0.114915
0.0127364
0.113079
0.00770932
0.111981
0.00476293
0.111341
0.00279123
0.110973
0.00129687
0.11058
0.00357527
0.109886
0.00686604
0.109211
0.00472792
0.108704
0.00384358
0.108283
0.00341684
0.107893
0.00318283
0.107519
0.00312864
0.107137
0.0032447
0.106721
0.00351463
0.106248
0.00393191
0.1057
0.00453181
0.105052
0.00534921
0.104307
0.00650594
0.103416
0.00792931
0.102614
0.0100642
0.0179253
0.101337
0.0189794
-0.0962358
4.76364e-07
0.0369001
-0.0950179
0.0535821
-0.091703
0.0687908
-0.0841295
0.0827603
-0.0788992
0.0954844
-0.0697923
0.107038
-0.0573565
0.116967
-0.0376185
0.126384
-0.0329745
0.134261
-0.0307391
0.141457
-0.0336126
0.147946
-0.0414284
0.153613
-0.0400023
0.15861
-0.0311704
0.162306
-0.00559633
0.163841
0.0217559
0.162006
0.0550838
0.156405
0.0524139
0.150019
0.0356975
0.145047
0.0239048
0.141451
0.0163328
0.139067
0.010093
0.137537
0.00629261
0.136592
0.00373701
0.136
0.00188841
0.135488
0.00408743
0.134788
0.00756568
0.134079
0.0054369
0.133527
0.00439599
0.133094
0.00384937
0.132719
0.00355821
0.132377
0.00347103
0.132046
0.00357565
0.1317
0.00386029
0.131317
0.00431486
0.130882
0.00496679
0.130379
0.00585238
0.129826
0.00705854
0.129199
0.00855643
0.128742
0.0105217
0.0186167
0.12805
0.0225706
-0.118807
4.86784e-07
0.0436565
-0.116104
0.0630921
-0.111139
0.0806986
-0.101736
0.0967583
-0.094959
0.111346
-0.0843795
0.124626
-0.0706367
0.136222
-0.0492149
0.147393
-0.0441459
0.156931
-0.0402769
0.165506
-0.0421874
0.172964
-0.0488861
0.179317
-0.0463553
0.184963
-0.0368168
0.189633
-0.0102661
0.192653
0.0187362
0.193004
0.0547326
0.189336
0.0560815
0.183564
0.0414697
0.178234
0.0292343
0.174075
0.0204926
0.17117
0.0129974
0.169176
0.00828656
0.16786
0.00505314
0.166985
0.002764
0.166292
0.00478031
0.165535
0.00832217
0.164776
0.0061958
0.164149
0.00502327
0.16366
0.00433804
0.163256
0.00396228
0.162905
0.00382236
0.162586
0.00389467
0.162277
0.00416963
0.161957
0.0046348
0.161616
0.00530731
0.161249
0.00621985
0.160884
0.00742304
0.160527
0.0089138
0.160382
0.0106667
0.0187794
0.160219
0.0269185
-0.145726
4.79761e-07
0.0518452
-0.14103
0.0746242
-0.133918
0.0951327
-0.122244
0.113695
-0.113521
0.130463
-0.101147
0.145684
-0.0858576
0.159071
-0.0626026
0.171982
-0.0570565
0.183198
-0.0514933
0.193247
-0.0522358
0.201854
-0.0574933
0.209103
-0.053604
0.215578
-0.0432923
0.221287
-0.015975
0.225781
0.0142421
0.228368
0.0521456
0.227198
0.057252
0.222993
0.0456748
0.218034
0.0341929
0.213663
0.0248642
0.210392
0.0162675
0.207998
0.0106814
0.206313
0.00673773
0.205137
0.00393999
0.204242
0.00567508
0.203409
0.00915587
0.202613
0.00699134
0.201932
0.00570445
0.201393
0.0048767
0.200962
0.00439304
0.200606
0.00417881
0.200303
0.00419751
0.200036
0.00443717
0.199788
0.00488266
0.199555
0.00554028
0.19934
0.00643419
0.19918
0.00758387
0.199102
0.0089917
0.199257
0.0105114
0.0185024
0.199534
0.0321907
-0.177917
4.87679e-07
0.061787
-0.170627
0.088637
-0.160768
0.112673
-0.14628
0.134257
-0.135105
0.153615
-0.120506
0.171075
-0.103317
0.186454
-0.0779817
0.201146
-0.0717488
0.214052
-0.0643995
0.225625
-0.0638084
0.235525
-0.0673938
0.243863
-0.061942
0.251346
-0.0507749
0.258174
-0.0228032
0.264108
0.00830849
0.268807
0.0474457
0.270369
0.0556903
0.268551
0.0474934
0.264914
0.0378298
0.26099
0.0287876
0.25772
0.0195374
0.255138
0.0132641
0.253195
0.00868006
0.251772
0.00536313
0.250702
0.0067449
0.249803
0.0100556
0.249
0.00779404
0.248315
0.00638964
0.247772
0.00541971
0.247354
0.0048104
0.247035
0.00449848
0.246793
0.00443908
0.246616
0.00461437
0.246493
0.00500508
0.246426
0.00560755
0.246425
0.00643514
0.246526
0.0074835
0.246769
0.00874846
0.24726
0.0100205
0.0178263
0.247936
0.038589
-0.216507
5.02025e-07
0.0738665
-0.205904
0.105679
-0.19258
0.134013
-0.174615
0.159266
-0.160358
0.181744
-0.142984
0.201847
-0.12342
0.219519
-0.0956541
0.236139
-0.0883687
0.250803
-0.079063
0.263952
-0.076958
0.275261
-0.0787023
0.284852
-0.0715329
0.293496
-0.0594194
0.301523
-0.0308298
0.308859
0.000971947
0.315464
0.0408411
0.31967
0.051484
0.320697
0.0464662
0.319284
0.0392438
0.316694
0.0313768
0.314044
0.0221875
0.311698
0.0156108
0.30978
0.0105976
0.308291
0.00685239
0.307164
0.00787201
0.306273
0.0109462
0.305527
0.00853964
0.304916
0.00700123
0.304449
0.00588658
0.304121
0.00513856
0.303913
0.00470598
0.303811
0.00454116
0.303806
0.00461991
0.303893
0.00491744
0.304079
0.00542149
0.304379
0.00613521
0.304825
0.0070375
0.305458
0.00811578
0.30635
0.00912852
0.0167273
0.307449
0.0463584
-0.262866
5.24598e-07
0.08855
-0.248096
0.126413
-0.230443
0.159992
-0.208194
0.18972
-0.190086
0.215986
-0.16925
0.239274
-0.146707
0.259667
-0.116047
0.278495
-0.107197
0.295092
-0.0956602
0.309932
-0.091798
0.322771
-0.091541
0.333762
-0.0825238
0.3437
-0.0693573
0.352994
-0.0401241
0.361713
-0.00774739
0.37001
0.0325444
0.376575
0.044919
0.380489
0.0425518
0.381869
0.0378639
0.381472
0.0317736
0.380221
0.0234387
0.378739
0.0170933
0.377331
0.0120056
0.376135
0.00804759
0.375214
0.00879331
0.374522
0.0116384
0.373978
0.00908382
0.373573
0.00740633
0.373311
0.00614778
0.373195
0.00525495
0.373217
0.00468433
0.373369
0.00438883
0.373649
0.00433985
0.374059
0.00450735
0.374608
0.00487228
0.375313
0.0054301
0.376202
0.00614916
0.377306
0.00701144
0.378676
0.00775891
0.0151408
0.380262
0.0558014
-0.318668
5.49963e-07
0.106411
-0.298705
0.151656
-0.275688
0.19164
-0.248178
0.226839
-0.225285
0.257737
-0.200148
0.284908
-0.173878
0.308596
-0.139735
0.330067
-0.128668
0.348915
-0.114508
0.365669
-0.108552
0.380217
-0.10609
0.392775
-0.0950814
0.40414
-0.0807227
0.414783
-0.0507663
0.424882
-0.0178463
0.434711
0.0227147
0.443308
0.0363219
0.449861
0.0359996
0.454173
0.0335516
0.45653
0.0294166
0.457397
0.0225719
0.457486
0.017004
0.457218
0.0122741
0.456847
0.00841809
0.456562
0.00907888
0.456408
0.0117916
0.456336
0.00915596
0.456368
0.0073747
0.456521
0.005995
0.456807
0.00496811
0.457235
0.00425656
0.457808
0.00381626
0.45853
0.00361749
0.45941
0.00362727
0.46046
0.00382244
0.461696
0.00419417
0.46314
0.00470538
0.464815
0.0053364
0.466753
0.00582103
0.0129779
0.468916
0.0672903
-0.385958
5.76427e-07
0.128157
-0.359572
0.182414
-0.329945
0.230227
-0.295991
0.272128
-0.267185
0.308709
-0.236729
0.340652
-0.205822
0.368381
-0.167463
0.393103
-0.15339
0.41468
-0.136085
0.433713
-0.127584
0.450253
-0.12263
0.464606
-0.109435
0.477574
-0.0936905
0.489681
-0.0628739
0.501197
-0.0293616
0.512484
0.0114273
0.522861
0.0259455
0.531712
0.0271484
0.538778
0.0264852
0.544059
0.0241355
0.547501
0.0191304
0.549757
0.0147478
0.551258
0.0107726
0.552319
0.00735785
0.553216
0.00818184
0.554077
0.0109301
0.554885
0.00834783
0.555708
0.00655209
0.55659
0.00511267
0.557566
0.00399245
0.55866
0.00316284
0.55989
0.00258606
0.561272
0.0022352
0.562821
0.00207811
0.564553
0.00209109
0.566482
0.00226455
0.568627
0.0025603
0.571004
0.00295984
0.573631
0.00319414
0.0101203
0.576488
0.0812799
-0.467239
6.03221e-07
0.154653
-0.432945
0.219921
-0.395213
0.277317
-0.353388
0.32744
-0.317308
0.371011
-0.2803
0.408844
-0.243655
0.44156
-0.200179
0.47033
-0.182161
0.495292
-0.161047
0.517131
-0.149423
0.536077
-0.141576
0.552557
-0.125914
0.567383
-0.108517
0.581149
-0.0766401
0.594202
-0.0424139
0.606976
-0.00134732
0.619008
0.0139135
0.629886
0.0162713
0.639416
0.0169549
0.647503
0.0160485
0.65366
0.0129732
0.658428
0.00998017
0.66217
0.00703004
0.665194
0.00433383
0.667817
0.00555924
0.670215
0.00853145
0.672394
0.00616945
0.674459
0.00448701
0.676486
0.00308546
0.678533
0.00194539
0.680645
0.00105121
0.682856
0.000375222
0.685194
-0.000102667
0.687681
-0.000409816
0.690339
-0.000566813
0.693185
-0.000580649
0.696232
-0.00048735
0.699494
-0.000302079
0.702981
-0.000293199
0.00640379
0.706698
0.0890514
-0.556291
5.73566e-07
0.169354
-0.513247
0.24068
-0.466539
0.30331
-0.416018
0.357867
-0.371865
0.405143
-0.327576
0.446021
-0.284534
0.481266
-0.235424
0.51194
-0.212835
0.538417
-0.187524
0.561412
-0.172419
0.581301
-0.161465
0.598602
-0.143215
0.614088
-0.124003
0.628374
-0.090926
0.641848
-0.0558876
0.654962
-0.0144618
0.667429
0.0014464
0.679029
0.00467193
0.689686
0.00629752
0.699335
0.00639956
0.707268
0.0050404
0.713896
0.00335141
0.719478
0.00144844
0.724253
-0.000441704
0.728509
0.00130351
0.732423
0.00461749
0.736002
0.00259061
0.739362
0.0011266
0.742591
-0.000143593
0.745759
-0.0012217
0.748919
-0.00210945
0.752118
-0.00282319
0.755389
-0.00337426
0.758762
-0.003783
0.76226
-0.00406457
0.765901
-0.00422139
0.769699
-0.00428546
0.773665
-0.00426773
0.777805
-0.00443372
0.00205995
0.782149
0.0956816
-0.651973
5.39093e-07
0.181899
-0.599464
0.258405
-0.543045
0.325512
-0.483126
0.383869
-0.430222
0.434329
-0.378035
0.477831
-0.328036
0.515255
-0.272847
0.547588
-0.245169
0.575383
-0.215318
0.599382
-0.196418
0.620071
-0.182154
0.638046
-0.16119
0.654047
-0.140004
0.668714
-0.105592
0.682464
-0.0696379
0.695763
-0.027761
0.70844
-0.0112305
0.720399
-0.00728697
0.731661
-0.00496478
0.742223
-0.00416226
0.751291
-0.00402704
0.759204
-0.00456205
0.766145
-0.00549219
0.772294
-0.00659102
0.777894
-0.00429612
0.783104
-0.000593029
0.787927
-0.00223181
0.792471
-0.0034176
0.796822
-0.00449502
0.801051
-0.00545092
0.805216
-0.0062744
0.809364
-0.00697092
0.813533
-0.00754295
0.817753
-0.00800328
0.822049
-0.00836084
0.826441
-0.00861279
0.830942
-0.00878638
0.835562
-0.00888822
0.840308
-0.00917973
-0.00286051
0.845229
0.102951
-0.754924
5.11096e-07
0.195668
-0.692182
0.277889
-0.625265
0.349959
-0.555196
0.412557
-0.49282
0.466602
-0.43208
0.513099
-0.374533
0.553033
-0.312782
0.587358
-0.279493
0.616773
-0.244733
0.642055
-0.2217
0.663786
-0.203885
0.682632
-0.180036
0.699324
-0.156696
0.714532
-0.120801
0.728707
-0.0838129
0.742328
-0.0413814
0.7553
-0.0242031
0.767613
-0.0195996
0.779359
-0.0167107
0.790594
-0.0153973
0.800492
-0.0139252
0.809365
-0.0134354
0.817354
-0.0134809
0.8246
-0.0138375
0.83131
-0.0110058
0.837624
-0.00690736
0.843537
-0.00814403
0.849145
-0.00902582
0.854527
-0.00987734
0.85975
-0.0106736
0.864868
-0.0113931
0.869929
-0.0120315
0.874969
-0.0125833
0.88002
-0.0130538
0.885105
-0.013446
0.890244
-0.0137517
0.895451
-0.0139935
0.900737
-0.0141738
0.906106
-0.0145492
-0.00837911
0.911625
0.110898
-0.865823
4.87251e-07
0.210735
-0.792019
0.299231
-0.713761
0.376765
-0.63273
0.444055
-0.56011
0.502087
-0.490113
0.551941
-0.424386
0.594707
-0.355548
0.631329
-0.316115
0.662638
-0.276043
0.689455
-0.248517
0.712443
-0.226873
0.732339
-0.199932
0.749883
-0.17424
0.765783
-0.136701
0.780523
-0.0985525
0.794601
-0.0554596
0.807975
-0.0375768
0.820692
-0.0323166
0.832901
-0.0289194
0.844708
-0.0272046
0.855276
-0.0244936
0.864913
-0.0230725
0.873741
-0.0223083
0.881879
-0.0219761
0.88951
-0.0186363
0.896759
-0.0141559
0.903611
-0.0149967
0.910155
-0.0155695
0.916459
-0.0161818
0.922585
-0.0167989
0.928582
-0.0173903
0.934494
-0.0179435
0.940356
-0.0184454
0.946197
-0.018895
0.952041
-0.0192895
0.957905
-0.019616
0.963804
-0.0198926
0.969748
-0.0201179
0.975742
-0.0205434
-0.0145017
0.981865
0.119574
-0.985398
4.66971e-07
0.227195
-0.899639
0.322562
-0.809129
0.406089
-0.716257
0.478539
-0.63256
0.540975
-0.552549
0.594556
-0.477966
0.640476
-0.401469
0.679693
-0.355332
0.71316
-0.309509
0.741746
-0.277103
0.766194
-0.251321
0.787314
-0.221052
0.805863
-0.19279
0.822597
-0.153434
0.838033
-0.113989
0.852697
-0.0701236
0.866581
-0.0514608
0.879777
-0.0455125
0.892477
-0.0416198
0.904832
-0.0395591
0.915998
-0.0356594
0.92629
-0.0333646
0.935825
-0.0318435
0.944714
-0.0308654
0.953124
-0.027046
0.96117
-0.0222021
0.968835
-0.0226612
0.976196
-0.0229304
0.983315
-0.0233016
0.990248
-0.0237316
0.99704
-0.0241822
1.00373
-0.0246336
1.01035
-0.0250662
1.01693
-0.0254731
1.02349
-0.0258464
1.03004
-0.0261691
1.0366
-0.026455
1.04318
-0.0266996
1.04979
-0.0271487
-0.0212194
1.05651
0.129039
-1.11444
4.49148e-07
0.245157
-1.01576
0.348035
-0.912007
0.438122
-0.806343
0.516232
-0.71067
0.58351
-0.619828
0.641201
-0.535658
0.690611
-0.450879
0.732725
-0.397445
0.768611
-0.345396
0.799197
-0.307689
0.825305
-0.277429
0.847817
-0.243564
0.86752
-0.212493
0.885222
-0.171135
0.901479
-0.130246
0.916847
-0.0854922
0.931346
-0.0659595
0.945102
-0.059268
0.958344
-0.0548625
0.97126
-0.0524744
0.983
-0.0473995
0.993893
-0.0442584
1.00406
-0.0420103
1.01361
-0.0404143
1.0227
-0.0361365
1.03144
-0.0309452
1.03982
-0.0310364
1.0479
-0.0310099
1.05574
-0.0311428
1.06339
-0.0313838
1.0709
-0.0316877
1.07829
-0.0320278
1.0856
-0.0323788
1.09286
-0.0327285
1.10008
-0.0330643
1.10727
-0.0333654
1.11446
-0.0336421
1.12165
-0.0338866
1.12884
-0.0343393
-0.0285108
1.13613
0.139361
-1.2538
4.3311e-07
0.264752
-1.14115
0.375833
-1.02309
0.473088
-0.903598
0.557394
-0.794976
0.629983
-0.692417
0.692193
-0.597868
0.745446
-0.504131
0.790767
-0.442766
0.829343
-0.383972
0.862164
-0.34051
0.890132
-0.305397
0.914206
-0.267637
0.935212
-0.233499
0.954013
-0.189937
0.971211
-0.147443
0.987396
-0.101677
1.00261
-0.0811716
1.017
-0.0736632
1.03085
-0.0687047
1.04435
-0.0659813
1.05667
-0.059717
1.06814
-0.0557322
1.0789
-0.0527669
1.08905
-0.0505653
1.09875
-0.0458404
1.10812
-0.0403119
1.11713
-0.0400444
1.12585
-0.0397287
1.13433
-0.0396264
1.14263
-0.0396786
1.15077
-0.0398329
1.1588
-0.0400563
1.16674
-0.040318
1.17461
-0.0406008
1.18244
-0.040888
1.19023
-0.0411551
1.19799
-0.041409
1.20574
-0.0416394
1.21349
-0.0420808
-0.0363453
1.22132
0.150617
-1.40442
4.18361e-07
0.286124
-1.27665
0.406158
-1.14312
0.511246
-1.00869
0.602327
-0.886056
0.68073
-0.77082
0.747898
-0.665036
0.805371
-0.561605
0.85423
-0.491626
0.895779
-0.425521
0.931079
-0.375809
0.961114
-0.335432
0.986923
-0.293447
1.00938
-0.255958
1.02942
-0.20997
1.04767
-0.165698
1.06478
-0.118786
1.0808
-0.0971903
1.09591
-0.0887748
1.11041
-0.0832046
1.12454
-0.0801168
1.13745
-0.072627
1.1495
-0.0677816
1.16083
-0.0640912
1.17154
-0.0612821
1.18182
-0.0561115
1.19175
-0.0502489
1.20133
-0.0496256
1.21063
-0.0490229
1.21969
-0.0486865
1.22856
-0.0485493
1.23728
-0.0485518
1.24588
-0.0486548
1.25438
-0.0488219
1.26281
-0.049031
1.27118
-0.0492616
1.27951
-0.0494858
1.28781
-0.0497073
1.29609
-0.0499133
1.30434
-0.0503324
-0.0446855
1.31268
0.162894
-1.56731
4.04802e-07
0.309438
-1.4232
0.439244
-1.27293
0.552885
-1.12233
0.651371
-0.984542
0.736136
-0.855586
0.808735
-0.737635
0.870837
-0.623707
0.923586
-0.544375
0.968409
-0.470344
1.00644
-0.413845
1.03876
-0.367752
1.06649
-0.321175
1.09056
-0.280024
1.11196
-0.23137
1.13139
-0.185126
1.14952
-0.136921
1.16644
-0.114105
1.18234
-0.104675
1.19755
-0.0984176
1.21235
-0.094918
1.22587
-0.086149
1.2385
-0.0804094
1.25038
-0.0759713
1.26164
-0.0725399
1.27244
-0.0669153
1.28291
-0.0607142
1.29301
-0.0597313
1.30283
-0.0588389
1.31241
-0.058266
1.3218
-0.0579368
1.33103
-0.0577844
1.34014
-0.057763
1.34915
-0.0578308
1.35808
-0.057961
1.36694
-0.0581288
1.37576
-0.0583034
1.38454
-0.0584853
1.39329
-0.0586592
1.402
-0.0590477
-0.0534876
1.4108
0.176289
-1.7436
3.92091e-07
0.334876
-1.58179
0.47535
-1.4134
0.598331
-1.24531
0.70491
-1.09112
0.796635
-0.94731
0.87518
-0.81618
0.942354
-0.690881
0.999375
-0.601395
1.0478
-0.518766
1.08884
-0.454891
1.12368
-0.402587
1.15352
-0.351016
1.17936
-0.305861
1.20226
-0.254273
1.22298
-0.205846
1.24224
-0.156186
1.26014
-0.132
1.2769
-0.121432
1.29287
-0.114395
1.30837
-0.110419
1.32253
-0.100301
1.33574
-0.0936194
1.34816
-0.088398
1.35994
-0.0843181
1.37125
-0.0782223
1.38221
-0.0716714
1.39279
-0.0703182
1.40308
-0.069128
1.41313
-0.0683121
1.42298
-0.0677854
1.43266
-0.067473
1.44222
-0.0673224
1.45168
-0.067286
1.46105
-0.0673321
1.47035
-0.0674319
1.4796
-0.0675513
1.4888
-0.0676877
1.49797
-0.0678236
1.5071
-0.068175
-0.062702
1.51631
0.19091
-1.93451
3.79735e-07
0.362645
-1.75352
0.514767
-1.56552
0.647952
-1.37849
0.763377
-1.20655
0.862714
-1.04665
0.947769
-0.901236
1.0205
-0.76361
1.0822
-0.6631
1.13457
-0.571137
1.17893
-0.499246
1.21653
-0.440186
1.24869
-0.383175
1.27647
-0.33364
1.30102
-0.278824
1.32315
-0.227979
1.34365
-0.176682
1.36261
-0.15096
1.38029
-0.139111
1.39707
-0.131182
1.4133
-0.126646
1.4281
-0.115098
1.44189
-0.107413
1.45485
-0.10136
1.46713
-0.0965954
1.47891
-0.0900026
1.49032
-0.0830838
1.50135
-0.0813427
1.51206
-0.0798414
1.52252
-0.0787718
1.53277
-0.0780386
1.54286
-0.0775588
1.55281
-0.0772723
1.56265
-0.0771258
1.5724
-0.0770822
1.58208
-0.0771086
1.59169
-0.0771677
1.60126
-0.0772535
1.61078
-0.0773463
1.62026
-0.0776552
-0.0722714
1.62983
0.206878
-2.14139
3.67958e-07
0.392972
-1.93961
0.55782
-1.73037
0.702157
-1.52283
0.827255
-1.33164
0.93492
-1.15431
1.0271
-0.993418
1.10592
-0.842424
1.17276
-0.729943
1.22946
-0.627841
1.27745
-0.547232
1.31808
-0.480819
1.35278
-0.417876
1.38269
-0.363546
1.40904
-0.305176
1.43271
-0.251649
1.45454
-0.198513
1.47465
-0.171064
1.4933
-0.157769
1.51094
-0.148818
1.52792
-0.143622
1.54337
-0.130547
1.55774
-0.121784
1.57122
-0.114842
1.58397
-0.109345
1.59619
-0.102221
1.60801
-0.0949099
1.61943
-0.0927571
1.63051
-0.0909256
1.64133
-0.0895871
1.65192
-0.0886352
1.66234
-0.0879776
1.67262
-0.0875466
1.68277
-0.0872825
1.69283
-0.0871427
1.70281
-0.0870898
1.71273
-0.0870832
1.72259
-0.0871135
1.7324
-0.0871584
1.74217
-0.0874199
-0.0821287
1.75202
0.224329
-2.36572
3.55969e-07
0.426116
-2.1414
0.604875
-1.90913
0.761406
-1.67936
0.897086
-1.46733
1.01387
-1.27109
1.11386
-1.09341
1.19934
-0.927906
1.27181
-0.802418
1.33327
-0.689297
1.38524
-0.5992
1.42919
-0.524777
1.46668
-0.455359
1.49891
-0.395775
1.52722
-0.333489
1.55256
-0.276988
1.57583
-0.221783
1.59716
-0.192394
1.61685
-0.177464
1.63537
-0.167337
1.65311
-0.161357
1.66921
-0.146646
1.68414
-0.136718
1.69812
-0.128816
1.7113
-0.122531
1.72391
-0.114835
1.7361
-0.1071
1.74785
-0.104505
1.75925
-0.102319
1.77035
-0.100692
1.78122
-0.0995047
1.7919
-0.0986561
1.80242
-0.0980696
1.81282
-0.0976785
1.82311
-0.0974346
1.83331
-0.0972957
1.84345
-0.0972174
1.85352
-0.0971869
1.86354
-0.0971793
1.87351
-0.0973889
-0.0921946
1.88358
0.243413
-2.60913
3.44408e-07
0.462364
-2.36035
0.656339
-2.1031
0.826212
-1.84923
0.973476
-1.61459
1.10024
-1.39786
1.20878
-1.20195
1.30157
-1.0207
1.38023
-0.88107
1.44689
-0.755965
1.50323
-0.655537
1.55083
-0.572381
1.59136
-0.495887
1.62613
-0.430542
1.65658
-0.363937
1.68372
-0.304131
1.70854
-0.2466
1.73117
-0.215025
1.75195
-0.198244
1.77137
-0.186762
1.78987
-0.179851
1.80661
-0.163382
1.82208
-0.15219
1.83651
-0.143247
1.85008
-0.136106
1.86304
-0.127788
1.87553
-0.11959
1.88754
-0.116516
1.89916
-0.113946
1.91048
-0.112006
1.92154
-0.110564
1.93239
-0.109507
1.94307
-0.108752
1.95362
-0.108222
1.96405
-0.107865
1.97438
-0.107632
1.98464
-0.107475
1.99483
-0.107378
2.00496
-0.107313
2.01504
-0.107466
-0.102374
2.02522
0.264301
-2.87343
3.3228e-07
0.502036
-2.59809
0.712667
-2.31374
0.897151
-2.03372
1.05711
-1.77454
1.19481
-1.53556
1.31273
-1.31987
1.41354
-1.1215
1.49897
-0.966502
1.57136
-0.828354
1.63249
-0.716666
1.68409
-0.623979
1.72795
-0.539747
1.76548
-0.468078
1.79825
-0.396703
1.82734
-0.333224
1.85381
-0.273074
1.87783
-0.239036
1.89974
-0.220154
1.92008
-0.207108
1.93932
-0.199092
1.95667
-0.18073
1.97264
-0.16816
1.98747
-0.15808
2.00137
-0.150007
2.01459
-0.141008
2.02731
-0.132303
2.0395
-0.128705
2.05127
-0.125715
2.06269
-0.123432
2.07384
-0.121711
2.08476
-0.120427
2.09549
-0.119486
2.10608
-0.118805
2.11653
-0.118322
2.12689
-0.117986
2.13715
-0.117743
2.14735
-0.117573
2.15748
-0.117445
2.16755
-0.117536
-0.112553
2.17773
0.287181
-3.16062
3.2029e-07
0.545492
-2.8564
0.774372
-2.54262
0.974868
-2.23421
1.14873
-1.94841
1.29844
-1.68527
1.42666
-1.44808
1.53626
-1.2311
1.62913
-1.05938
1.7078
-0.907022
1.77419
-0.783054
1.83017
-0.679959
1.87767
-0.587252
1.91823
-0.508633
1.95351
-0.431986
1.98471
-0.36442
2.01295
-0.301317
2.03842
-0.2645
2.06149
-0.243232
2.08276
-0.22838
2.10272
-0.219051
2.12064
-0.198646
2.13705
-0.184569
2.15222
-0.173247
2.16636
-0.164151
2.17976
-0.154403
2.19259
-0.145138
2.20485
-0.140966
2.21665
-0.137514
2.22807
-0.134853
2.23918
-0.132824
2.25005
-0.131289
2.2607
-0.130142
2.27119
-0.129293
2.28154
-0.128672
2.29177
-0.128221
2.30191
-0.127883
2.31197
-0.127632
2.32196
-0.127435
2.33189
-0.127459
-0.122592
2.34193
0.312266
-3.47288
3.07582e-07
0.593137
-3.13727
0.842028
-2.79151
1.06009
-2.45227
1.24922
-2.13754
1.41211
-1.84816
1.55162
-1.5876
1.67089
-1.35037
1.77194
-1.16043
1.85751
-0.992589
1.92967
-0.855218
1.99045
-0.740742
2.04195
-0.638747
2.0858
-0.552483
2.12381
-0.470001
2.15727
-0.397878
2.1874
-0.331445
2.21439
-0.291488
2.23866
-0.267506
2.26085
-0.250566
2.28148
-0.239683
2.2999
-0.217069
2.31667
-0.201339
2.33208
-0.188652
2.34636
-0.178434
2.35982
-0.167859
2.37265
-0.157971
2.38485
-0.153165
2.39654
-0.149202
2.40781
-0.146124
2.41874
-0.143753
2.42939
-0.141938
2.43981
-0.140563
2.45004
-0.139527
2.46012
-0.138752
2.47007
-0.138174
2.47992
-0.13773
2.48968
-0.13739
2.49936
-0.137117
2.50897
-0.137068
-0.132324
2.5187
0.339796
-3.81268
2.94771e-07
0.645423
-3.4429
0.916278
-3.06236
1.15362
-2.68961
1.35952
-2.34345
1.53688
-2.02552
1.68882
-1.73954
1.81872
-1.48027
1.92876
-1.27048
2.02192
-1.08574
2.10043
-0.933728
2.16648
-0.806799
2.22234
-0.694609
2.26979
-0.599927
2.31077
-0.510979
2.34666
-0.433773
2.37879
-0.363577
2.40737
-0.320069
2.43286
-0.292996
2.45594
-0.273642
2.47718
-0.260919
2.49602
-0.235913
2.51305
-0.218366
2.52857
-0.204177
2.54286
-0.192721
2.55623
-0.181229
2.56891
-0.170649
2.58088
-0.16514
2.59229
-0.16061
2.60323
-0.157067
2.6138
-0.154315
2.62405
-0.152189
2.63404
-0.150558
2.64383
-0.149312
2.65344
-0.148365
2.66291
-0.147644
2.67226
-0.147082
2.68152
-0.146643
2.69069
-0.146286
2.69978
-0.146157
-0.141545
2.709
0.370039
-4.18272
2.81065e-07
0.70286
-3.77572
0.997846
-3.35735
1.25638
-2.94815
1.48072
-2.56778
1.674
-2.21881
1.83961
-1.90515
1.9812
-1.62185
2.10115
-1.39042
2.20265
-1.18724
2.28814
-1.01922
2.35999
-0.878647
2.42063
-0.755258
2.472
-0.651293
2.51619
-0.555172
2.5547
-0.472284
2.58896
-0.397836
2.6192
-0.350305
2.64591
-0.31971
2.66983
-0.297561
2.69158
-0.282664
2.71073
-0.255065
2.72788
-0.235518
2.74337
-0.219671
2.7575
-0.206846
2.77061
-0.194336
2.78294
-0.182981
2.79449
-0.176692
2.80541
-0.17153
2.81581
-0.167467
2.82578
-0.164289
2.83541
-0.161813
2.84475
-0.159896
2.85385
-0.158414
2.86276
-0.157273
2.87151
-0.156393
2.88012
-0.155699
2.88863
-0.15515
2.89704
-0.1547
2.90537
-0.154484
-0.150012
2.91384
0.403296
-4.58601
2.6698e-07
0.766021
-4.13844
1.08755
-3.67888
1.36939
-3.22999
1.61402
-2.81241
1.82484
-2.42963
2.00551
-2.08581
2.15998
-1.77633
2.29084
-1.52127
2.40153
-1.29794
2.4947
-1.11239
2.57292
-0.956861
2.63881
-0.821153
2.69446
-0.706941
2.74214
-0.602851
2.78346
-0.513608
2.81997
-0.434345
2.85192
-0.382252
2.87985
-0.347638
2.90454
-0.322256
2.92667
-0.304793
2.94599
-0.274381
2.96309
-0.252624
2.97837
-0.234945
2.99213
-0.220603
3.00475
-0.206958
3.0165