/*--------------------------------*- C++ -*----------------------------------*\
  =========                 |
  \\      /  F ield         | OpenFOAM: The Open Source CFD Toolbox
   \\    /   O peration     | Website:  https://openfoam.org
    \\  /    A nd           | Version:  11
     \\/     M anipulation  |
\*---------------------------------------------------------------------------*/
FoamFile
{
    format      ascii;
    class       volVectorField;
    location    "300";
    object      U;
}
// * * * * * * * * * * * * * * * * * * * * * * * * * * * * * * * * * * * * * //

dimensions      [0 1 -1 0 0 0 0];

internalField   nonuniform List<vector> 
11040
(
(1.62186 2.09378 7.55297e-18)
(2.1926 6.41642 -1.65468e-17)
(3.78851 10.8825 -1.80049e-17)
(6.36242 14.7416 2.29655e-17)
(9.63209 17.9372 -1.18076e-17)
(13.6796 20.2064 4.31698e-18)
(18.1186 21.1094 0)
(21.2673 19.2179 -6.99045e-18)
(22.5589 16.561 0)
(23.4495 15.0943 -1.51019e-17)
(24.6091 14.8344 0)
(26.6945 15.8875 0)
(30.2451 17.0554 3.42751e-17)
(34.9033 16.8709 0)
(37.8989 13.1925 0)
(36.6837 6.79166 0)
(28.8892 -0.667922 0)
(21.407 -4.46433 5.9423e-17)
(18.8605 -4.83993 4.65312e-17)
(18.9824 -4.24428 -3.69594e-17)
(19.3647 -3.85245 3.11607e-17)
(19.3831 -3.65593 -8.97742e-19)
(19.2278 -3.5313 -2.38198e-17)
(19.0627 -3.43711 2.64888e-19)
(19.0274 -3.36816 0)
(18.8755 -3.46179 0)
(18.0579 -3.64823 0)
(17.2751 -3.64539 0)
(16.7829 -3.54847 2.05881e-17)
(16.4251 -3.45181 0)
(16.0644 -3.36251 0)
(15.6813 -3.27335 5.2498e-20)
(15.2859 -3.1829 1.36324e-20)
(14.8745 -3.09069 -1.38685e-20)
(14.4347 -2.99426 1.08717e-18)
(13.9566 -2.89083 -3.18654e-18)
(13.4116 -2.77456 -5.32386e-18)
(12.8042 -2.64378 -6.19812e-20)
(11.9752 -2.47231 3.71142e-20)
(11.2458 -2.2542 0)
(8.5375 -2.03195 1.92523e-17)
(2.78973 1.98617 -1.16125e-18)
(3.50736 5.94525 -6.78355e-19)
(5.26157 9.85299 -1.13131e-17)
(8.01535 13.1779 -4.59457e-18)
(11.3958 15.8455 0)
(15.5952 17.519 1.09385e-18)
(20.0828 17.7229 4.2791e-19)
(24.0458 16.2438 2.2749e-18)
(25.7483 14.7636 -9.78425e-18)
(26.3186 14.3241 -9.89781e-20)
(27.0795 14.5762 -2.33791e-19)
(28.7004 15.6323 7.91894e-19)
(32.0286 15.9714 0)
(36.5437 14.219 0)
(40.7772 9.26386 0)
(43.1238 3.60228 9.19562e-18)
(39.9555 -2.57779 1.83021e-18)
(33.2532 -4.69666 -3.19308e-17)
(27.9674 -4.33608 -2.08451e-17)
(25.2289 -3.96871 -4.73538e-19)
(23.8909 -3.86867 -1.73083e-17)
(23.0501 -3.78748 1.56277e-17)
(22.4475 -3.70239 -4.71555e-19)
(22.0028 -3.64379 -9.0114e-20)
(21.7395 -3.62355 -1.16488e-17)
(21.4965 -3.81698 3.25459e-19)
(20.9156 -4.08 -1.01671e-17)
(20.1105 -3.9666 -1.09492e-19)
(19.4833 -3.82212 -6.16911e-18)
(18.9848 -3.72518 0)
(18.5236 -3.6388 0)
(18.0781 -3.55038 -5.80681e-18)
(17.645 -3.46117 3.64494e-20)
(17.214 -3.37042 5.81502e-19)
(16.7708 -3.27456 -5.51925e-20)
(16.3067 -3.17069 0)
(15.7974 -3.05367 3.24577e-18)
(15.26 -2.92109 -1.54323e-20)
(14.5359 -2.7463 -6.18201e-18)
(14.0263 -2.52689 0)
(12.1216 -2.28602 -1.97502e-17)
(4.43197 1.81272 0)
(5.14849 5.41522 4.83146e-18)
(6.71613 8.92246 3.85553e-18)
(9.05433 11.994 1.01069e-17)
(11.9669 14.4907 -5.62934e-19)
(15.5026 16.2062 4.453e-18)
(19.3028 16.8298 -5.21079e-19)
(22.6211 16.1276 9.25102e-19)
(24.5726 15.174 1.7149e-18)
(25.6806 14.7776 -7.67549e-18)
(26.8615 14.8011 0)
(28.7137 15.3557 -8.61382e-19)
(31.8294 15.3648 1.61849e-17)
(35.8908 13.8266 -2.12605e-17)
(39.4464 9.55217 0)
(41.4871 4.27796 -7.30964e-18)
(40.7492 -1.85062 1.37982e-18)
(36.878 -4.45662 2.04443e-17)
(32.6856 -4.68084 -1.74574e-17)
(29.7002 -4.53842 1.42233e-17)
(27.7392 -4.42447 1.19947e-17)
(26.3495 -4.28187 -1.0832e-17)
(25.3445 -4.1486 0)
(24.6071 -4.05915 9.45739e-18)
(24.1153 -4.01687 8.9206e-18)
(23.6695 -4.16416 -5.05242e-19)
(22.9453 -4.37679 7.52291e-18)
(22.1425 -4.28797 -1.64318e-19)
(21.484 -4.16459 4.9383e-18)
(20.9411 -4.07153 -3.91228e-18)
(20.4356 -3.97852 3.0636e-18)
(19.9446 -3.87981 2.14902e-18)
(19.4669 -3.77939 -1.3388e-18)
(18.9948 -3.67675 -4.13931e-19)
(18.5152 -3.56828 -4.61996e-19)
(18.019 -3.45042 1.34786e-18)
(17.4824 -3.31828 -1.43194e-20)
(16.9201 -3.16398 0)
(16.1959 -2.97379 8.46248e-20)
(15.6317 -2.69624 -3.24692e-20)
(14.038 -2.41795 6.86226e-18)
(6.22554 1.63559 0)
(6.89173 4.89397 -1.22637e-18)
(8.26753 8.02805 -2.94414e-18)
(10.2751 10.809 -7.92949e-18)
(12.8114 13.0873 2.2122e-18)
(15.8507 14.7296 -5.7104e-18)
(19.135 15.515 -2.05905e-18)
(22.0876 15.2863 1.24286e-18)
(24.1905 14.5816 4.89619e-18)
(25.5837 14.175 1.02031e-17)
(26.9089 14.163 -1.63292e-18)
(28.7575 14.537 -3.88823e-19)
(31.5537 14.4604 2.63096e-19)
(35.1183 13.1066 1.89293e-17)
(38.3652 9.52432 -2.29896e-18)
(40.0985 4.88417 0)
(39.6588 -0.705973 -2.13679e-18)
(37.0446 -3.81121 2.47415e-18)
(33.9906 -4.51249 2.8383e-17)
(31.6741 -4.54847 -6.78124e-19)
(29.9728 -4.52452 1.05106e-17)
(28.596 -4.44552 6.37113e-19)
(27.4893 -4.34406 0)
(26.6148 -4.26812 0)
(25.9737 -4.22751 -7.42881e-18)
(25.4099 -4.34852 4.21002e-19)
(24.6351 -4.54961 -5.7347e-18)
(23.808 -4.49932 0)
(23.1129 -4.38399 -3.66155e-18)
(22.536 -4.28692 2.88949e-18)
(22.0033 -4.19118 -4.83964e-18)
(21.4881 -4.08943 -1.69579e-18)
(20.9878 -3.9845 1.03862e-18)
(20.4957 -3.87603 0)
(19.9997 -3.76053 0)
(19.4911 -3.63378 -4.49388e-20)
(18.9482 -3.49112 0)
(18.3836 -3.32068 0)
(17.6802 -3.11704 3.45063e-18)
(17.1086 -2.79867 -4.89359e-20)
(15.7128 -2.49068 1.82073e-20)
(8.07607 1.46021 -2.66076e-19)
(8.68633 4.37755 0)
(9.88314 7.14857 3.10337e-18)
(11.5881 9.62953 -1.08994e-18)
(13.7481 11.6937 4.55204e-18)
(16.3147 13.2578 -5.53749e-18)
(19.1007 14.166 2.48378e-18)
(21.6959 14.3324 -1.69073e-19)
(23.8198 13.9832 0)
(25.4002 13.6992 -4.97308e-19)
(26.8351 13.6572 5.92774e-18)
(28.665 13.8161 4.58464e-18)
(31.1839 13.5827 -8.93301e-18)
(34.2842 12.333 0)
(37.224 9.31895 -1.42981e-17)
(38.9897 5.24077 0)
(38.7379 0.238366 7.00001e-18)
(36.6203 -3.02552 -2.20972e-19)
(34.033 -4.05683 -1.01304e-18)
(32.0885 -4.26149 2.55571e-18)
(30.7265 -4.3601 -9.8649e-18)
(29.621 -4.38545 -8.96962e-18)
(28.6806 -4.35204 9.64409e-19)
(27.8843 -4.31946 0)
(27.2487 -4.30663 6.25662e-18)
(26.679 -4.41914 -6.68162e-19)
(25.9479 -4.61506 5.07638e-18)
(25.1562 -4.60614 -2.2142e-19)
(24.4623 -4.50856 4.05137e-19)
(23.8757 -4.41748 -2.65621e-18)
(23.3363 -4.32749 1.76097e-18)
(22.8168 -4.22895 1.59241e-18)
(22.3129 -4.12408 -1.77273e-20)
(21.8188 -4.01347 -2.209e-20)
(21.3232 -3.89401 2.34956e-21)
(20.8183 -3.76089 -1.66081e-20)
(20.2851 -3.60966 -5.9695e-20)
(19.7352 -3.42539 2.63473e-20)
(19.07 -3.20818 -2.60238e-18)
(18.5219 -2.86087 0)
(17.3326 -2.52519 3.73143e-18)
(9.94002 1.28834 9.85827e-19)
(10.4922 3.87205 -6.97351e-19)
(11.5201 6.29626 2.12199e-18)
(12.9499 8.48029 -3.73857e-18)
(14.7555 10.3297 -2.49834e-18)
(16.891 11.797 9.06421e-18)
(19.2218 12.7755 2.03194e-18)
(21.4604 13.2299 4.98536e-19)
(23.5037 13.2136 0)
(25.2048 13.0733 -4.88954e-18)
(26.7365 13.0089 -4.75079e-18)
(28.5326 12.9977 -2.47944e-18)
(30.7886 12.6451 2.82209e-18)
(33.4522 11.5053 1.84479e-18)
(36.0462 9.02908 1.21054e-17)
(37.8404 5.59136 -2.52265e-18)
(37.9714 1.20035 -3.23011e-18)
(36.3359 -2.10738 -2.21181e-17)
(34.0118 -3.49341 -9.74768e-18)
(32.1327 -3.90409 1.90141e-18)
(30.8543 -4.1039 4.4807e-18)
(29.8901 -4.20933 7.60741e-18)
(29.0945 -4.23607 -6.10085e-18)
(28.4187 -4.24624 0)
(27.861 -4.26594 0)
(27.3609 -4.37622 0)
(26.746 -4.56466 3.95938e-18)
(26.0553 -4.59822 0)
(25.4183 -4.53198 0)
(24.8654 -4.45652 2.18878e-18)
(24.3548 -4.37853 0)
(23.8615 -4.28898 -1.28325e-18)
(23.381 -4.18938 8.15205e-19)
(22.909 -4.08118 0)
(22.4363 -3.96186 0)
(21.9565 -3.8263 -6.43267e-19)
(21.4535 -3.67012 2.60085e-20)
(20.9387 -3.47677 1.55877e-18)
(20.3335 -3.24945 2.09676e-18)
(19.8301 -2.88871 -2.5847e-18)
(18.8633 -2.53818 -3.01582e-18)
(11.7801 1.12253 0)
(12.2731 3.38641 0)
(13.1451 5.48481 1.62847e-18)
(14.3298 7.38319 1.26373e-18)
(15.8148 9.01958 0)
(17.5651 10.3724 -3.35381e-18)
(19.488 11.3719 -4.85598e-19)
(21.3859 12.0069 -1.77389e-18)
(23.2665 12.2592 6.52778e-19)
(24.9932 12.281 -2.36457e-20)
(26.5776 12.2346 0)
(28.3193 12.1183 2.08777e-18)
(30.3347 11.691 -1.43821e-17)
(32.6098 10.66 6.26651e-18)
(34.8661 8.65313 4.0489e-18)
(36.6113 5.84444 8.7343e-18)
(37.1352 2.12405 -6.44912e-18)
(36.0769 -1.09712 6.68861e-18)
(34.107 -2.812 -8.09224e-18)
(32.2766 -3.47505 0)
(30.963 -3.79078 -6.06349e-18)
(30.0057 -3.97406 -5.64403e-18)
(29.2467 -4.05909 1.01904e-17)
(28.6153 -4.10728 0)
(28.0939 -4.15413 4.19877e-18)
(27.6362 -4.26006 3.74512e-18)
(27.1167 -4.43094 3.57896e-19)
(26.5294 -4.49588 -7.08634e-20)
(25.9674 -4.46311 -3.26865e-19)
(25.4693 -4.40609 0)
(25.0089 -4.342 0)
(24.563 -4.26453 1.07219e-18)
(24.1264 -4.17378 1.44144e-20)
(23.6966 -4.07133 3.78371e-19)
(23.2665 -3.95535 0)
(22.831 -3.82071 -4.07114e-19)
(22.3779 -3.66309 -3.19464e-20)
(21.9177 -3.46588 -1.2311e-18)
(21.3937 -3.23323 1.53685e-18)
(20.9529 -2.87575 2.15161e-18)
(20.2137 -2.5229 0)
(13.5592 0.965562 0)
(13.994 2.92932 -1.46842e-18)
(14.7258 4.72694 2.50544e-18)
(15.6974 6.35723 -6.98804e-18)
(16.9026 7.78578 3.55677e-18)
(18.3187 9.00883 2.77406e-18)
(19.8852 9.98363 0)
(21.4688 10.7072 1.20009e-18)
(23.1332 11.1465 0)
(24.7907 11.3219 3.96043e-19)
(26.3657 11.3258 -1.11804e-18)
(28.0284 11.1638 1.05522e-18)
(29.825 10.7096 3.82633e-18)
(31.7634 9.79317 1.69606e-18)
(33.7041 8.1856 -6.39112e-19)
(35.3342 5.94502 -9.58144e-18)
(36.1483 2.91134 4.27723e-19)
(35.6727 -0.0623196 0)
(34.1782 -2.00252 3.66546e-18)
(32.5085 -2.94009 6.25621e-19)
(31.1806 -3.40694 5.18069e-18)
(30.1965 -3.68292 5.71853e-18)
(29.4264 -3.83621 1.17369e-18)
(28.7889 -3.92835 0)
(28.2602 -4.00257 -3.47576e-18)
(27.8008 -4.10674 -3.10891e-18)
(27.3203 -4.25594 -2.73987e-18)
(26.7952 -4.33775 0)
(26.2832 -4.33347 1.99005e-18)
(25.8223 -4.29372 0)
(25.3991 -4.24143 0)
(24.9931 -4.17457 0)
(24.5975 -4.09211 -6.04049e-19)
(24.2095 -3.99528 -6.25142e-19)
(23.8237 -3.8829 -9.49136e-21)
(23.4362 -3.75023 6.22265e-19)
(23.0382 -3.593 0)
(22.6387 -3.39612 -8.52083e-19)
(22.2021 -3.16271 -2.50749e-18)
(21.8307 -2.823 -1.45798e-18)
(21.2983 -2.47696 -2.50587e-20)
(15.2449 0.819897 0)
(15.624 2.50769 1.2437e-18)
(16.233 4.0324 -2.75958e-21)
(17.0236 5.41656 3.72516e-19)
(17.9922 6.64654 -3.04179e-18)
(19.1264 7.72971 -2.37461e-18)
(20.3885 8.6422 1.6693e-18)
(21.6906 9.38206 -1.01382e-18)
(23.1154 9.92409 -5.90141e-20)
(24.6274 10.2195 6.87302e-19)
(26.1242 10.2908 0)
(27.6755 10.135 -5.52762e-18)
(29.2687 9.70191 5.11408e-18)
(30.9194 8.91046 -6.63046e-18)
(32.5751 7.63849 0)
(34.0505 5.89061 -2.44425e-18)
(35.0265 3.50979 7.21894e-18)
(35.0491 0.919725 -4.91929e-18)
(34.0848 -1.09663 0)
(32.6991 -2.28441 0)
(31.4368 -2.93274 0)
(30.451 -3.32067 -5.65961e-18)
(29.6722 -3.55447 2.50249e-19)
(29.0216 -3.7015 -1.48333e-18)
(28.4738 -3.80918 2.88289e-18)
(27.9964 -3.92011 1.20332e-18)
(27.5245 -4.05404 -1.19873e-18)
(27.0317 -4.14459 1.97329e-18)
(26.5475 -4.16453 2.89921e-20)
(26.1034 -4.14226 0)
(25.6962 -4.10066 -2.36622e-19)
(25.3105 -4.04246 2.38978e-19)
(24.9383 -3.96685 5.79188e-19)
(24.5767 -3.87459 2.77824e-19)
(24.2216 -3.765 0)
(23.87 -3.63412 -2.26687e-19)
(23.5163 -3.47791 0)
(23.1674 -3.28425 7.29854e-19)
(22.8049 -3.05421 9.73343e-19)
(22.4938 -2.74168 2.30698e-18)
(22.1161 -2.411 0)
(16.8108 0.687376 9.75789e-19)
(17.1385 2.12593 -2.59169e-18)
(17.6423 3.407 -2.97834e-18)
(18.2822 4.56936 5.70154e-18)
(19.056 5.6137 0)
(19.9578 6.55316 -1.63179e-18)
(20.9655 7.3763 1.36651e-18)
(22.0223 8.08032 -1.22743e-18)
(23.2087 8.65227 -1.49367e-19)
(24.5272 9.01975 -7.13394e-19)
(25.8846 9.15662 8.3545e-19)
(27.2896 9.04317 2.86559e-18)
(28.6878 8.66959 -5.3221e-18)
(30.0917 8.01301 6.39464e-18)
(31.4961 7.0232 -3.43903e-18)
(32.7988 5.68817 4.87367e-18)
(33.8215 3.886 -3.70066e-18)
(34.2069 1.76001 8.01125e-18)
(33.7495 -0.167563 0)
(32.736 -1.52232 0)
(31.634 -2.35454 -3.20666e-18)
(30.6962 -2.87025 4.56045e-19)
(29.9323 -3.19596 3.08969e-18)
(29.2824 -3.40961 2.62405e-18)
(28.7239 -3.56032 -3.48616e-18)
(28.2325 -3.68936 -9.76915e-19)
(27.7631 -3.81955 -8.57938e-19)
(27.2919 -3.91656 -1.48916e-18)
(26.8293 -3.9573 7.77484e-19)
(26.3969 -3.95405 0)
(25.9975 -3.92509 2.01966e-19)
(25.6216 -3.87639 -3.53208e-19)
(25.2618 -3.80834 -3.23276e-19)
(24.9153 -3.7214 0)
(24.579 -3.61531 0)
(24.2511 -3.48725 0)
(23.9286 -3.3339 0)
(23.6164 -3.14684 4.37002e-19)
(23.3075 -2.92542 0)
(23.0421 -2.64434 -8.6046e-19)
(22.7596 -2.33894 -2.681e-20)
(18.2384 0.569082 0)
(18.5195 1.78585 0)
(18.9349 2.85247 -2.14859e-18)
(19.4514 3.81818 0)
(20.0677 4.69265 0)
(20.7817 5.49098 0)
(21.5806 6.20923 0)
(22.4286 6.84423 0)
(23.3943 7.39255 0)
(24.5009 7.78353 -8.89184e-19)
(25.6778 7.9684 7.04353e-19)
(26.9069 7.91283 -6.30801e-19)
(28.1131 7.62179 2.01516e-18)
(29.3006 7.10382 2.8159e-18)
(30.4844 6.35156 -3.92112e-18)
(31.6116 5.35346 2.88623e-18)
(32.5947 4.03138 -7.76477e-21)
(33.1944 2.38306 -5.5196e-18)
(33.1549 0.685817 2.96597e-18)
(32.5444 -0.708239 -3.16654e-18)
(31.6864 -1.68266 0)
(30.8588 -2.32592 -2.53092e-18)
(30.1441 -2.7496 -4.58959e-18)
(29.518 -3.03826 4.3097e-18)
(28.9663 -3.24143 -2.07009e-18)
(28.4735 -3.40004 1.62989e-18)
(28.0111 -3.53945 -1.61381e-18)
(27.5603 -3.64572 -6.14797e-19)
(27.1206 -3.70534 -1.03464e-18)
(26.7038 -3.72231 -4.35864e-19)
(26.3148 -3.70887 0)
(25.9488 -3.672 0)
(25.6006 -3.6136 -4.57382e-19)
(25.2673 -3.53443 -2.49585e-19)
(24.9469 -3.43462 9.70763e-20)
(24.6384 -3.3126 4.58786e-22)
(24.3408 -3.16608 0)
(24.0579 -2.99004 -3.07751e-19)
(23.7881 -2.78355 -4.72595e-20)
(23.5575 -2.53522 0)
(23.3296 -2.26448 5.83416e-19)
(19.5165 0.465349 0)
(19.7564 1.487 -1.8688e-18)
(20.0981 2.36719 3.62502e-18)
(20.5147 3.16102 0)
(21.005 3.88332 0)
(21.5689 4.54868 2.05216e-18)
(22.1992 5.15725 3.08541e-18)
(22.8731 5.70624 -1.864e-18)
(23.645 6.1978 0)
(24.5448 6.57348 4.78113e-21)
(25.5249 6.78141 -9.9412e-19)
(26.5615 6.78082 -7.16784e-19)
(27.5782 6.57756 1.89859e-18)
(28.5709 6.19213 5.96976e-19)
(29.5588 5.63854 -2.64065e-18)
(30.5161 4.91086 1.02456e-18)
(31.4053 3.96669 -3.45675e-18)
(32.0875 2.75151 3.94604e-18)
(32.3371 1.36817 1.05406e-18)
(32.0945 0.0691978 2.17142e-18)
(31.5287 -0.962801 0)
(30.8726 -1.70368 2.0983e-18)
(30.2498 -2.21785 -1.72444e-18)
(29.677 -2.58234 3.68521e-18)
(29.1548 -2.84375 0)
(28.6783 -3.04134 2.78991e-18)
(28.2324 -3.20177 0)
(27.805 -3.32314 1.00876e-18)
(27.3914 -3.40172 -1.02209e-18)
(26.9965 -3.43955 7.87953e-19)
(26.6241 -3.44429 -2.9273e-19)
(26.2731 -3.42229 2.94733e-19)
(25.9401 -3.37657 2.09096e-19)
(25.623 -3.30851 4.07496e-19)
(25.3208 -3.21878 -7.66295e-20)
(25.033 -3.10697 -9.7742e-20)
(24.7597 -2.97211 0)
(24.5041 -2.81197 1.50117e-19)
(24.2662 -2.62649 4.01966e-20)
(24.0639 -2.41155 -4.00913e-20)
(23.8712 -2.18058 -4.74317e-19)
(20.6412 0.375895 0)
(20.8448 1.22737 -3.37083e-18)
(21.1255 1.94723 6.08841e-18)
(21.4612 2.59288 -2.29749e-18)
(21.8513 3.18164 1.80011e-18)
(22.2962 3.72626 -6.79769e-18)
(22.7915 4.22885 0)
(23.3228 4.68738 -1.1292e-18)
(23.931 5.10659 0)
(24.6444 5.44221 0)
(25.4333 5.64959 -1.06785e-18)
(26.2777 5.68969 1.46376e-18)
(27.1118 5.56471 0)
(27.9267 5.29579 -1.27351e-18)
(28.7388 4.9043 0)
(29.5355 4.3895 -4.29218e-18)
(30.3038 3.7322 4.87165e-18)
(30.9722 2.87278 6.66674e-19)
(31.3771 1.81914 -9.13594e-19)
(31.4142 0.714813 -1.85202e-18)
(31.1344 -0.272301 -1.57287e-18)
(30.6884 -1.04984 0)
(30.1988 -1.6256 -2.971e-18)
(29.7122 -2.05332 1.33409e-18)
(29.2465 -2.37025 1.22399e-18)
(28.8078 -2.61069 -1.23679e-19)
(28.3927 -2.80016 -3.09193e-18)
(27.9957 -2.94288 0)
(27.6129 -3.04225 7.63879e-19)
(27.2458 -3.10165 -6.00901e-19)
(26.8971 -3.12655 6.05073e-19)
(26.567 -3.12232 -8.44772e-19)
(26.2543 -3.09252 3.94632e-19)
(25.9579 -3.03925 1.6158e-19)
(25.6773 -2.96382 4.47183e-20)
(25.4126 -2.86689 1.00261e-19)
(25.1644 -2.74875 0)
(24.9352 -2.60917 -1.80659e-19)
(24.7255 -2.44923 0)
(24.547 -2.26814 0)
(24.3808 -2.07738 0)
(21.6148 0.300038 0)
(21.7865 1.0041 1.02677e-18)
(22.0165 1.58745 -4.41388e-18)
(22.2868 2.10704 3.29583e-18)
(22.597 2.58086 1.53611e-18)
(22.9475 3.01935 -8.64491e-19)
(23.3354 3.42533 5.3328e-18)
(23.7516 3.79761 -6.30937e-18)
(24.2254 4.14162 4.33316e-18)
(24.7802 4.42562 -2.47591e-18)
(25.398 4.61547 6.06325e-19)
(26.0651 4.67867 -1.88791e-18)
(26.7306 4.61414 1.8856e-18)
(27.3849 4.43898 2.43355e-18)
(28.0394 4.1743 -2.21041e-18)
(28.6878 3.82203 -2.36804e-19)
(29.3271 3.37647 0)
(29.9248 2.78859 -5.8992e-19)
(30.3757 2.02921 4.68777e-18)
(30.5825 1.16248 -4.77847e-18)
(30.5321 0.305042 1.33841e-18)
(30.2948 -0.434847 0)
(29.9619 -1.02364 1.73783e-18)
(29.589 -1.48543 -1.61479e-18)
(29.2058 -1.8424 8.49451e-19)
(28.8276 -2.11992 -9.62006e-19)
(28.4606 -2.33923 8.05472e-19)
(28.1053 -2.50628 6.90379e-19)
(27.7605 -2.62804 -6.26021e-19)
(27.4279 -2.70957 -9.88772e-19)
(27.1097 -2.75587 9.93774e-19)
(26.8071 -2.77165 -1.10194e-20)
(26.5202 -2.76067 3.0701e-19)
(26.2488 -2.72562 -2.13196e-19)
(25.9931 -2.66848 0)
(25.7535 -2.59076 3.25243e-20)
(25.5309 -2.49374 -8.36733e-20)
(25.327 -2.37852 4.11326e-20)
(25.1423 -2.247 4.46017e-20)
(24.9839 -2.09977 -2.26317e-20)
(24.839 -1.94713 -1.16914e-19)
(22.4442 0.236915 -1.5804e-18)
(22.5879 0.814072 -1.04158e-18)
(22.7756 1.28237 -2.22853e-18)
(22.9927 1.69609 2.61011e-18)
(23.2392 2.07277 3.66028e-18)
(23.5147 2.42053 -1.69902e-18)
(23.8177 2.74225 -2.86299e-18)
(24.1418 3.03747 0)
(24.5076 3.31132 -2.0662e-18)
(24.9329 3.54188 9.70841e-19)
(25.4066 3.705 5.51991e-19)
(25.9204 3.77604 1.06182e-18)
(26.4381 3.75243 -2.91351e-18)
(26.9512 3.64645 2.55442e-18)
(27.4672 3.47574 0)
(27.9821 3.243 -6.17529e-19)
(28.4967 2.94914 5.23281e-18)
(28.9982 2.55785 -5.07885e-18)
(29.4242 2.03326 -1.7362e-19)
(29.7025 1.39577 6.84402e-18)
(29.7992 0.711445 -7.31673e-18)
(29.7308 0.0704897 0)
(29.5488 -0.477502 -8.45781e-19)
(29.3002 -0.932957 4.24369e-19)
(29.0161 -1.30236 0)
(28.7166 -1.59996 0)
(28.414 -1.84032 -2.32739e-18)
(28.1131 -2.02806 1.77534e-18)
(27.8159 -2.17039 -9.21276e-19)
(27.5256 -2.2728 9.25064e-19)
(27.2451 -2.34011 3.6625e-19)
(26.9764 -2.37668 8.79408e-19)
(26.7206 -2.38623 -1.28197e-18)
(26.4785 -2.37178 3.56261e-19)
(26.2508 -2.33581 -4.93071e-20)
(26.0381 -2.28042 1.30667e-19)
(25.8413 -2.20755 1.28277e-19)
(25.6616 -2.11902 -3.8442e-20)
(25.4993 -2.0171 -3.047e-20)
(25.3585 -1.90291 1.31356e-20)
(25.2311 -1.78541 4.87537e-20)
(23.1388 0.185427 0)
(23.2578 0.654214 -5.62319e-19)
(23.4102 1.02657 -7.89609e-19)
(23.5842 1.35266 6.11032e-18)
(23.7796 1.64871 -4.07092e-18)
(23.9959 1.9208 -1.06145e-18)
(24.2318 2.17154 2.01107e-18)
(24.4832 2.40104 0)
(24.7639 2.61372 6.62381e-19)
(25.0864 2.79487 -6.2277e-19)
(25.4443 2.92831 7.48039e-19)
(25.8326 2.99663 -9.51254e-19)
(26.2267 2.99705 1.50201e-18)
(26.6202 2.93788 3.26951e-18)
(27.0179 2.83252 -2.93133e-18)
(27.417 2.68342 -2.87058e-18)
(27.8189 2.49432 2.84425e-18)
(28.2201 2.23966 -3.87437e-22)
(28.585 1.88861 -4.17505e-18)
(28.8666 1.44256 4.33219e-18)
(29.0326 0.933264 5.02536e-18)
(29.0738 0.422569 -4.85732e-18)
(29.0109 -0.0434698 3.31782e-19)
(28.8748 -0.453376 0)
(28.6904 -0.802647 0)
(28.4768 -1.09563 0)
(28.2481 -1.33973 0)
(28.0114 -1.53688 0)
(27.7704 -1.69236 0)
(27.53 -1.81056 0)
(27.2941 -1.89557 -3.008e-19)
(27.0655 -1.95118 9.40289e-19)
(26.8461 -1.98079 -5.46364e-19)
(26.6374 -1.98741 -3.06408e-19)
(26.4405 -1.97365 -6.65281e-20)
(26.2564 -1.94189 0)
(26.0859 -1.89432 1.14307e-20)
(25.9298 -1.83303 7.00261e-21)
(25.7885 -1.76032 -4.02484e-20)
(25.6642 -1.67745 1.83617e-21)
(25.5519 -1.59192 3.64965e-20)
(23.7099 0.144059 -7.00077e-19)
(23.8071 0.521142 -2.6016e-18)
(23.9302 0.814281 -3.49883e-19)
(24.0692 1.06901 3.17608e-18)
(24.2237 1.29949 4.53104e-18)
(24.393 1.51 4.7988e-19)
(24.5762 1.70286 -3.69018e-18)
(24.7705 1.87855 1.97394e-18)
(24.9849 2.04063 -2.31611e-18)
(25.228 2.17943 4.63495e-19)
(25.4958 2.28454 -7.51042e-19)
(25.7852 2.34428 -5.61393e-20)
(26.0804 2.35638 7.72548e-19)
(26.3768 2.32632 -1.62016e-18)
(26.6773 2.26368 2.35412e-18)
(26.9799 2.17036 -2.43662e-18)
(27.2857 2.05043 4.5635e-18)
(27.595 1.88677 -9.20115e-18)
(27.8882 1.65633 4.93579e-18)
(28.1362 1.35451 -6.12502e-18)
(28.3156 0.994576 6.22141e-18)
(28.4102 0.614215 0)
(28.4233 0.247776 0)
(28.3716 -0.0911389 0)
(28.2711 -0.393503 8.81151e-20)
(28.1365 -0.65741 -2.81385e-18)
(27.9803 -0.884727 2.63806e-18)
(27.8095 -1.07498 1.45481e-19)
(27.6284 -1.23091 0)
(27.4422 -1.3551 -9.71325e-19)
(27.2554 -1.45032 9.69469e-19)
(27.0713 -1.51941 9.66963e-20)
(26.8924 -1.56511 -8.46282e-20)
(26.7205 -1.59 -5.44316e-19)
(26.557 -1.59648 6.03823e-19)
(26.4032 -1.58678 0)
(26.2599 -1.56302 -3.53405e-20)
(26.1279 -1.5272 6.25482e-21)
(26.0074 -1.48139 7.5593e-20)
(25.8995 -1.42677 -9.80998e-21)
(25.8018 -1.36938 8.74962e-21)
(24.154 0.112917 6.15406e-19)
(24.2334 0.416139 0)
(24.3328 0.646983 -1.96792e-19)
(24.4442 0.846787 1.36855e-18)
(24.5671 1.02694 1.29689e-18)
(24.7007 1.19033 -2.45934e-18)
(24.8441 1.33902 0)
(24.9953 1.47377 7.43771e-19)
(25.1606 1.59725 3.51432e-19)
(25.3454 1.70312 3.82309e-19)
(25.5471 1.78472 9.79308e-20)
(25.7639 1.83433 6.2419e-19)
(25.9854 1.8504 -6.02988e-19)
(26.2086 1.83659 -1.19192e-18)
(26.4353 1.79974 -8.36905e-19)
(26.6639 1.74124 -8.32392e-19)
(26.8954 1.66461 -8.8881e-19)
(27.1304 1.55809 2.93773e-18)
(27.3584 1.40549 0)
(27.5615 1.20151 4.46142e-18)
(27.7244 0.951183 -4.25475e-18)
(27.8322 0.676662 -4.78259e-18)
(27.8814 0.40117 4.75481e-18)
(27.88 0.135994 0)
(27.8368 -0.109792 -8.09915e-20)
(27.7616 -0.33176 0)
(27.6639 -0.528734 1.43815e-19)
(27.5493 -0.698972 -2.02598e-18)
(27.4216 -0.843305 1.88608e-18)
(27.2854 -0.962717 1.58587e-18)
(27.1452 -1.0587 -1.5778e-18)
(27.004 -1.13305 -8.77732e-20)
(26.8646 -1.18771 4.10781e-20)
(26.7287 -1.22465 0)
(26.5981 -1.24577 -5.58251e-20)
(26.474 -1.25294 0)
(26.3572 -1.24796 -1.44099e-19)
(26.2485 -1.23251 -2.51154e-21)
(26.1483 -1.20833 9.33227e-20)
(26.0572 -1.1764 0)
(25.974 -1.14137 0)
(24.4846 0.0902009 -1.48774e-18)
(24.5503 0.336639 1.41064e-18)
(24.6315 0.520818 4.23502e-19)
(24.7221 0.67985 -1.24747e-18)
(24.8214 0.822692 2.16593e-19)
(24.9285 0.95132 0)
(25.0427 1.06755 -2.66693e-18)
(25.1626 1.17228 1.99873e-18)
(25.2924 1.2675 4.29757e-19)
(25.4358 1.349 -6.53426e-19)
(25.5908 1.41242 2.99872e-19)
(25.7564 1.45259 -2.96173e-19)
(25.9254 1.46851 1.17305e-18)
(26.096 1.4627 -1.00427e-18)
(26.2692 1.4401 3.19423e-19)
(26.4438 1.40173 -3.21888e-19)
(26.6204 1.35058 4.50087e-18)
(26.8 1.27854 -1.56393e-18)
(26.9762 1.17433 -5.288e-18)
(27.138 1.03351 2.70319e-18)
(27.2755 0.857783 -5.95329e-20)
(27.377 0.66041 0)
(27.4375 0.456643 -3.57294e-18)
(27.4606 0.254659 3.54338e-18)
(27.4507 0.0618561 3.42147e-18)
(27.4139 -0.117088 -3.44594e-18)
(27.3569 -0.279845 1.58061e-18)
(27.2838 -0.424326 -1.58115e-18)
(27.1974 -0.5503 0)
(27.1015 -0.657756 -1.28781e-18)
(26.9998 -0.747248 1.28693e-18)
(26.8951 -0.819761 1.06202e-18)
(26.7896 -0.876523 -1.50433e-18)
(26.6854 -0.918884 4.7217e-19)
(26.5838 -0.948245 5.93209e-21)
(26.4861 -0.966016 3.19722e-19)
(26.3931 -0.973592 -4.58508e-19)
(26.3056 -0.972314 1.37494e-19)
(26.224 -0.963529 4.90859e-20)
(26.1487 -0.948046 -2.8561e-20)
(26.0793 -0.929299 -2.46514e-20)
(24.7348 0.0732088 0)
(24.7898 0.275406 -4.55012e-19)
(24.8568 0.424161 -1.08464e-19)
(24.9313 0.552377 -1.69734e-18)
(25.0126 0.66709 8.15603e-19)
(25.0998 0.769671 2.36887e-18)
(25.1922 0.861736 -4.36622e-18)
(25.2888 0.944186 2.02448e-18)
(25.3925 1.01855 4.79056e-19)
(25.5057 1.08197 -1.68876e-18)
(25.627 1.13155 6.30508e-19)
(25.7558 1.16379 2.22379e-19)
(25.887 1.17805 -1.22745e-19)
(26.0193 1.17615 1.44457e-19)
(26.1535 1.16167 -1.76663e-18)
(26.2885 1.1354 2.33142e-18)
(26.4247 1.0997 2.75362e-18)
(26.5629 1.04901 -6.4243e-18)
(26.6992 0.975469 5.53536e-18)
(26.8266 0.875738 -2.01648e-18)
(26.9387 0.75025 -2.44883e-18)
(27.0267 0.607264 5.13801e-18)
(27.0862 0.456848 8.90586e-20)
(27.1185 0.30463 -2.53057e-18)
(27.1259 0.156124 4.6391e-20)
(27.112 0.0153309 -7.28495e-20)
(27.0813 -0.115313 -2.46041e-20)
(27.0368 -0.233821 1.16703e-18)
(26.9803 -0.339519 -2.25517e-18)
(26.9147 -0.431921 1.08901e-18)
(26.8428 -0.511047 -8.3278e-21)
(26.7671 -0.577329 -1.31727e-20)
(26.6893 -0.631465 6.88396e-21)
(26.6111 -0.674315 -3.45935e-19)
(26.5339 -0.706835 3.48567e-19)
(26.4586 -0.730029 2.96094e-19)
(26.3862 -0.74492 -2.82365e-19)
(26.3172 -0.752508 0)
(26.252 -0.753805 0)
(26.1911 -0.749436 1.10248e-20)
(26.1345 -0.741852 4.40164e-21)
(24.9276 0.0601705 0)
(24.974 0.22737 2.16202e-18)
(25.0298 0.34879 2.53756e-18)
(25.0916 0.453298 -2.53665e-18)
(25.1589 0.546428 2.04626e-18)
(25.2306 0.629153 -2.04373e-18)
(25.3063 0.702905 -7.60415e-19)
(25.3851 0.768544 1.24765e-18)
(25.469 0.827262 -4.33958e-19)
(25.5598 0.877084 0)
(25.6562 0.916076 1.14358e-19)
(25.7579 0.941818 0)
(25.8612 0.953951 4.01335e-19)
(25.9652 0.953792 -4.97501e-19)
(26.0704 0.943992 0)
(26.176 0.925174 -2.1476e-19)
(26.2821 0.899187 0)
(26.3893 0.862155 2.23785e-18)
(26.4952 0.808624 -2.52422e-18)
(26.5952 0.736192 0)
(26.685 0.644873 0)
(26.7582 0.540053 -1.31249e-19)
(26.8114 0.428499 -1.82701e-18)
(26.845 0.314029 1.8445e-18)
(26.8601 0.20059 -1.94761e-18)
(26.859 0.0913315 2.00132e-18)
(26.8445 -0.0116163 3.31736e-20)
(26.8186 -0.106621 0)
(26.7828 -0.192917 0)
(26.739 -0.269862 -8.04325e-19)
(26.6893 -0.33722 7.52174e-19)
(26.6356 -0.395103 1.22688e-20)
(26.5793 -0.443866 0)
(26.5218 -0.484023 2.56686e-20)
(26.4642 -0.516193 0)
(26.4073 -0.541058 -8.36291e-21)
(26.3518 -0.559338 -2.19045e-19)
(26.2984 -0.571749 1.43887e-19)
(26.2474 -0.579024 7.48926e-20)
(26.1991 -0.581635 -1.02168e-20)
(26.1538 -0.581256 -8.84342e-21)
(25.0787 0.0499682 -5.58966e-19)
(25.1179 0.189116 -3.04014e-19)
(25.1647 0.28911 -1.48228e-18)
(25.2164 0.375071 0)
(25.2726 0.451363 0)
(25.3322 0.518699 0)
(25.3947 0.578341 7.03348e-19)
(25.4597 0.631087 -2.3993e-18)
(25.5284 0.677879 1.1085e-18)
(25.602 0.717345 1.45579e-18)
(25.6796 0.74818 -4.63413e-19)
(25.7609 0.768706 7.48541e-20)
(25.8433 0.778735 -7.51099e-20)
(25.926 0.779255 6.26208e-19)
(26.0094 0.772249 -6.36395e-19)
(26.0927 0.758213 0)
(26.1762 0.738592 1.38684e-18)
(26.2601 0.710667 -1.42615e-18)
(26.3428 0.670632 -2.12338e-18)
(26.4213 0.616812 4.4881e-18)
(26.4927 0.549117 5.11677e-19)
(26.5524 0.471226 -3.9413e-18)
(26.5977 0.387806 -1.64734e-19)
(26.6289 0.301456 2.86035e-18)
(26.6464 0.214963 -1.43556e-18)
(26.6516 0.130698 0)
(26.6466 0.0503759 8.09495e-20)
(26.6326 -0.024748 0)
(26.6105 -0.0939767 -7.63592e-20)
(26.5818 -0.156687 0)
(26.548 -0.212559 4.16954e-20)
(26.5104 -0.261548 6.57312e-20)
(26.4703 -0.303806 5.16481e-19)
(26.4286 -0.339621 -5.45103e-19)
(26.3862 -0.36938 0)
(26.3438 -0.393533 0)
(26.302 -0.412568 -2.28005e-20)
(26.2613 -0.426986 6.13331e-20)
(26.222 -0.437305 -1.3938e-19)
(26.1843 -0.443873 7.57789e-20)
(26.1487 -0.447782 2.38662e-20)
(25.1985 0.0418589 -3.73397e-19)
(25.2319 0.158293 8.56834e-19)
(25.2712 0.24128 -1.31835e-18)
(25.3148 0.312538 1.66993e-19)
(25.362 0.375523 0)
(25.4119 0.430774 1.04257e-18)
(25.4641 0.479402 -2.09406e-18)
(25.5181 0.522132 7.58958e-20)
(25.5748 0.559717 7.46372e-19)
(25.6351 0.591206 -1.36818e-18)
(25.6983 0.615713 0)
(25.764 0.632073 3.22603e-20)
(25.8303 0.640209 0)
(25.8967 0.640877 0)
(25.9634 0.635578 0)
(26.0299 0.624717 0)
(26.0961 0.609422 1.27933e-18)
(26.1622 0.587778 -1.13624e-18)
(26.2273 0.557118 0)
(26.2891 0.516298 0)
(26.3457 0.465238 1.43563e-18)
(26.3938 0.406559 -1.88577e-18)
(26.4315 0.343558 1.9893e-18)
(26.4588 0.278028 -2.08464e-18)
(26.476 0.211938 0)
(26.484 0.147036 9.59421e-19)
(26.4841 0.0846448 -2.2797e-18)
(26.4773 0.0256966 1.05739e-18)
(26.4642 -0.0292377 1.30734e-20)
(26.4457 -0.0796252 0)
(26.423 -0.125154 -5.37953e-20)
(26.397 -0.165715 -1.00833e-20)
(26.3687 -0.201353 0)
(26.3388 -0.232223 -4.56854e-20)
(26.308 -0.25856 0)
(26.2767 -0.280653 0)
(26.2456 -0.29883 2.12304e-20)
(26.2149 -0.313434 -3.45682e-20)
(26.185 -0.324825 6.50695e-20)
(26.156 -0.333259 -5.14032e-21)
(26.1284 -0.339411 -4.37914e-20)
(25.2946 0.0353278 0)
(25.323 0.133211 0)
(25.3564 0.202548 1.21361e-18)
(25.3933 0.262015 6.13679e-20)
(25.4332 0.31436 0)
(25.4752 0.360008 9.50396e-19)
(25.5191 0.399935 6.75359e-19)
(25.5643 0.43479 -1.63729e-18)
(25.6115 0.465187 3.94638e-19)
(25.6613 0.490464 -6.99631e-19)
(25.7132 0.510029 -1.00884e-19)
(25.7667 0.52307 -3.01266e-20)
(25.8206 0.529582 0)
(25.8744 0.530159 -1.13591e-19)
(25.9282 0.525946 0)
(25.9816 0.517281 0)
(26.0345 0.505048 -1.00917e-18)
(26.0871 0.487894 8.40085e-19)
(26.1386 0.463947 0)
(26.1874 0.432437 0)
(26.2324 0.393325 -1.36412e-18)
(26.271 0.348541 2.88989e-18)
(26.3018 0.300469 -2.9356e-18)
(26.325 0.250369 1.45749e-18)
(26.3407 0.199637 0)
(26.3494 0.149555 2.0623e-19)
(26.3522 0.101123 1.48588e-19)
(26.3496 0.0550159 0)
(26.3421 0.0116784 -7.13977e-19)
(26.3304 -0.0284642 8.4638e-19)
(26.3153 -0.0651432 1.32979e-19)
(26.2975 -0.0982389 -4.77714e-20)
(26.2777 -0.127745 -3.78327e-20)
(26.2564 -0.15374 4.25958e-20)
(26.2341 -0.176363 0)
(26.2112 -0.195803 3.19789e-20)
(26.1882 -0.212275 0)
(26.1653 -0.226014 1.7683e-19)
(26.1428 -0.237267 -1.15398e-19)
(26.1208 -0.246221 -2.3752e-21)
(26.0995 -0.25327 -2.45733e-20)
(25.3725 0.0300093 4.89694e-19)
(25.3967 0.112631 2.24133e-19)
(25.4251 0.170907 -1.2222e-18)
(25.4565 0.220824 3.29463e-18)
(25.4904 0.264581 -1.582e-18)
(25.526 0.302523 6.21929e-19)
(25.563 0.335506 6.4203e-19)
(25.6011 0.364108 5.46011e-19)
(25.6407 0.388836 4.336e-19)
(25.6822 0.409235 3.01069e-19)
(25.725 0.424913 -2.03025e-19)
(25.7691 0.435309 -2.70813e-20)
(25.8132 0.440467 -2.76745e-20)
(25.8571 0.440856 6.78957e-19)
(25.9008 0.437365 -4.97331e-19)
(25.9439 0.430275 9.88333e-19)
(25.9865 0.420286 -8.46989e-19)
(26.0286 0.406442 0)
(26.0695 0.387426 9.04181e-20)
(26.1084 0.362731 -9.54937e-19)
(26.1441 0.332358 9.74975e-19)
(26.1751 0.297767 -8.68402e-19)
(26.2001 0.260717 2.1358e-18)
(26.2194 0.222105 -1.06855e-18)
(26.2331 0.182934 0)
(26.2416 0.144143 -8.56741e-20)
(26.2455 0.106479 -8.55458e-20)
(26.2453 0.0704274 0)
(26.2414 0.0363218 -5.85076e-19)
(26.2341 0.00448913 5.64585e-19)
(26.2242 -0.0248547 -7.72242e-20)
(26.212 -0.0516013 0)
(26.1982 -0.0757252 3.52825e-20)
(26.1831 -0.0972637 -5.60942e-20)