/*--------------------------------*- C++ -*----------------------------------*\
  =========                 |
  \\      /  F ield         | OpenFOAM: The Open Source CFD Toolbox
   \\    /   O peration     | Website:  https://openfoam.org
    \\  /    A nd           | Version:  11
     \\/     M anipulation  |
\*---------------------------------------------------------------------------*/
FoamFile
{
    format      ascii;
    class       volScalarField;
    location    "50";
    object      nut;
}
// * * * * * * * * * * * * * * * * * * * * * * * * * * * * * * * * * * * * * //

dimensions      [0 2 -1 0 0 0 0];

internalField   nonuniform List<scalar> 
11040
(
0.00175804
0.00179864
0.00193878
0.00251497
0.00294841
0.00326277
0.00343832
0.00335167
0.003196
0.00309599
0.00307356
0.00318412
0.003409
0.00367981
0.00372168
0.00349057
0.00284798
0.00240203
0.00222354
0.00215833
0.00212201
0.002083
0.00204909
0.00202677
0.0020206
0.00200462
0.0019567
0.0019178
0.00188668
0.00186314
0.00184111
0.00181884
0.00179647
0.00177276
0.00174578
0.001714
0.00167594
0.00163283
0.00157353
0.00152421
0.00126974
0.00812738
0.00821199
0.00814553
0.00790006
0.00762794
0.00719492
0.00655602
0.00565888
0.00494015
0.00446081
0.00415649
0.00411382
0.00412498
0.00404291
0.00370474
0.0038428
0.00402927
0.00419092
0.0042799
0.0041703
0.00392481
0.00366311
0.00345288
0.00329874
0.00318175
0.00307265
0.00302751
0.003005
0.002969
0.00292614
0.0028879
0.0028583
0.00283648
0.00282194
0.00281432
0.00281228
0.00281501
0.00281834
0.00282718
0.00284193
0.00270348
0.0169402
0.0171124
0.0170911
0.0167112
0.0162281
0.0154581
0.0143319
0.0126886
0.0112408
0.0101764
0.00944076
0.00922162
0.00915643
0.00894942
0.00816128
0.00706373
0.00577196
0.00560077
0.00577912
0.00601323
0.0061617
0.0061829
0.00612587
0.00604438
0.00596506
0.00582808
0.00562905
0.00553001
0.00547162
0.00542898
0.0053923
0.00535664
0.00532119
0.00528508
0.00524986
0.00521419
0.00517949
0.00513547
0.00509175
0.00503099
0.00463773
0.0274004
0.0276566
0.0276346
0.0271334
0.0264159
0.0252967
0.0236688
0.0213315
0.0190988
0.0174024
0.0162222
0.0157837
0.0156036
0.0152159
0.0140399
0.0122977
0.00989417
0.00834549
0.0075179
0.00751512
0.0076538
0.00773724
0.00779766
0.00783831
0.00785555
0.00780482
0.00767826
0.00760206
0.00755714
0.00753111
0.0075165
0.00750743
0.00750079
0.00749385
0.00748597
0.00747478
0.00746026
0.00743306
0.00739262
0.00735967
0.00687526
0.0389928
0.0393238
0.0392996
0.0387154
0.0378085
0.0364109
0.0343823
0.0314947
0.0285377
0.026206
0.0245636
0.0238522
0.0235015
0.0229003
0.0212825
0.0189165
0.0155317
0.0129497
0.0113288
0.0103095
0.0096703
0.00937898
0.00942397
0.00950524
0.0095451
0.00952924
0.00946537
0.00944728
0.00944768
0.00945679
0.00947405
0.0094973
0.00952361
0.00955004
0.00957526
0.00959675
0.00961324
0.00961719
0.00960012
0.00960535
0.00916198
0.05117
0.0515566
0.0515305
0.050907
0.0498811
0.0483113
0.0460341
0.0427511
0.0391534
0.0363097
0.0342853
0.0332945
0.0327356
0.0318993
0.0298712
0.0268697
0.0223726
0.0186274
0.0162197
0.0146613
0.0135677
0.0127904
0.0122558
0.0118781
0.0115991
0.0114753
0.0114225
0.0114169
0.0114124
0.0114209
0.0114487
0.011488
0.0115313
0.0115758
0.0116211
0.0116651
0.0117052
0.0117349
0.0117419
0.0117761
0.0114114
0.0633621
0.0637786
0.0637534
0.0631328
0.0620697
0.0604499
0.0580874
0.0546552
0.0507807
0.0475179
0.0451526
0.0439052
0.0431182
0.0420371
0.0396619
0.0359322
0.030503
0.0257029
0.0224118
0.0201955
0.018657
0.0175638
0.0167548
0.016131
0.0156632
0.0152013
0.0146726
0.0142455
0.0139633
0.0138649
0.0138491
0.0138486
0.0138519
0.0138673
0.0138957
0.0139295
0.0139624
0.0139873
0.013991
0.0140241
0.0137012
0.0750275
0.0754456
0.0754243
0.074843
0.07382
0.0722659
0.0699529
0.066699
0.0629163
0.0595315
0.0569106
0.0553801
0.0543453
0.0530231
0.0502871
0.0461447
0.0401198
0.0344898
0.030368
0.027449
0.0253386
0.0238098
0.022679
0.0217968
0.0211185
0.0204564
0.0196744
0.0190022
0.0184372
0.0179634
0.017565
0.0172189
0.0169984
0.0169062
0.0168704
0.0168409
0.0168108
0.0167764
0.0167241
0.0167065
0.016333
0.085723
0.0861174
0.0861012
0.0855851
0.0846612
0.0832623
0.0811671
0.0782908
0.0748705
0.0716478
0.0689921
0.0672293
0.0659661
0.0643992
0.0615244
0.0572818
0.0510739
0.0449412
0.0401277
0.0365306
0.0338149
0.031791
0.0302797
0.0290944
0.0281669
0.0272849
0.0262834
0.0254029
0.024644
0.0239758
0.0233763
0.0228257
0.0223156
0.0218449
0.0214063
0.0210485
0.0208086
0.0206329
0.0204663
0.0203502
0.019832
0.0951622
0.0955144
0.095503
0.0950652
0.0942733
0.0930794
0.0912984
0.0888984
0.0859987
0.0831474
0.0806645
0.0788395
0.0773958
0.0757131
0.0729045
0.06885
0.0628918
0.056674
0.0513782
0.0472269
0.0439598
0.0414525
0.0395461
0.0380339
0.0368297
0.0357075
0.0344861
0.0333983
0.0324496
0.0316078
0.030846
0.0301427
0.0294801
0.0288443
0.0282235
0.0276115
0.0270073
0.0264357
0.0259468
0.0255975
0.0248453
0.103235
0.103535
0.103527
0.103169
0.102517
0.101539
0.100094
0.0981789
0.0958438
0.0934633
0.0912948
0.0895682
0.0881104
0.0864475
0.0838684
0.0802286
0.0748936
0.068949
0.0635305
0.0590058
0.0553386
0.0524789
0.0502449
0.0484342
0.0469613
0.0456053
0.0441823
0.0429031
0.0417742
0.0407659
0.0398496
0.0390025
0.0382059
0.0374435
0.0367019
0.0359692
0.035233
0.0344818
0.0337075
0.0330338
0.0319466
0.10998
0.110227
0.110222
0.109935
0.109414
0.108634
0.107499
0.106015
0.104202
0.102276
0.100487
0.0989727
0.0976291
0.0961107
0.093882
0.0908078
0.0862891
0.0810675
0.0760097
0.0714969
0.0676309
0.0644791
0.0619675
0.0599109
0.0582193
0.05668
0.0551171
0.0536967
0.0524242
0.051276
0.0502266
0.0492545
0.0483411
0.047471
0.0466299
0.0458054
0.0449859
0.044161
0.0433047
0.0425042
0.0411956
0.115532
0.11573
0.115726
0.1155
0.115089
0.114478
0.113602
0.112472
0.11109
0.109594
0.108148
0.106889
0.105732
0.104431
0.102602
0.100134
0.0965377
0.0922879
0.0879687
0.0838378
0.0801154
0.0769537
0.0743414
0.0721465
0.0703013
0.0686233
0.0669477
0.065417
0.0640365
0.0627876
0.0616458
0.0605888
0.0595976
0.0586627
0.0577626
0.0568842
0.0560171
0.0551533
0.0542733
0.0534524
0.0521618
0.120064
0.12022
0.120217
0.120041
0.119718
0.119242
0.11857
0.117716
0.116662
0.115528
0.114408
0.113385
0.112431
0.111364
0.109919
0.107989
0.105268
0.10203
0.0985786
0.0951291
0.0918567
0.0889559
0.086479
0.0843543
0.0825204
0.080836
0.0791672
0.0776287
0.0762255
0.0749437
0.0737643
0.0726691
0.071642
0.0706694
0.0697392
0.0688404
0.0679629
0.0670985
0.0662365
0.0654327
0.0642521
0.123752
0.123874
0.123872
0.123734
0.123481
0.123111
0.122596
0.121951
0.121163
0.120308
0.119449
0.118639
0.11787
0.117017
0.115901
0.11444
0.112443
0.110061
0.107477
0.104815
0.102167
0.0997389
0.0975913
0.0956827
0.0939975
0.0924388
0.0909058
0.0894812
0.088166
0.0869515
0.0858313
0.0847854
0.0838005
0.0828665
0.0819739
0.0811146
0.0802808
0.0794663
0.0786601
0.0779063
0.0768723
0.126753
0.126848
0.126847
0.12674
0.12654
0.126251
0.125858
0.125369
0.124784
0.124136
0.123476
0.122841
0.12223
0.121558
0.120707
0.119621
0.118184
0.116479
0.114622
0.112661
0.110662
0.108764
0.107041
0.105475
0.104071
0.102755
0.101459
0.100242
0.0991067
0.0980479
0.097059
0.0961312
0.0952558
0.0944309
0.0936439
0.0928876
0.0921568
0.0914469
0.0907506
0.090098
0.0892519
0.129204
0.129279
0.129278
0.129194
0.129036
0.12881
0.128512
0.128136
0.127688
0.127195
0.126688
0.126195
0.125716
0.125193
0.12455
0.123748
0.122721
0.121517
0.12021
0.118816
0.117378
0.115972
0.114669
0.11347
0.112371
0.111333
0.110312
0.109354
0.108452
0.107605
0.106807
0.106054
0.105342
0.104664
0.104018
0.103399
0.102808
0.102238
0.101683
0.101163
0.100522
0.131124
0.131183
0.131184
0.131117
0.130991
0.13081
0.130574
0.130279
0.129933
0.129551
0.129157
0.128776
0.128398
0.127988
0.127494
0.126892
0.12614
0.125275
0.124343
0.123349
0.122312
0.12129
0.120331
0.119433
0.118599
0.117809
0.117039
0.116308
0.115618
0.114965
0.114349
0.113766
0.113217
0.112696
0.112199
0.111725
0.11127
0.110833
0.110413
0.110021
0.109562
0.132578
0.132626
0.132627
0.132573
0.13247
0.132322
0.132131
0.131895
0.131619
0.131316
0.131003
0.130699
0.130398
0.130069
0.12968
0.129216
0.128651
0.128008
0.127315
0.126585
0.125823
0.12507
0.124353
0.123674
0.123046
0.122449
0.121867
0.121313
0.120792
0.120299
0.119832
0.119391
0.118973
0.118576
0.118201
0.117845
0.117505
0.117179
0.116867
0.116577
0.116251
0.133705
0.133746
0.133748
0.133703
0.133617
0.133494
0.133335
0.133145
0.132918
0.132674
0.132422
0.132174
0.131924
0.131653
0.131339
0.130973
0.130536
0.130045
0.12952
0.128969
0.128395
0.127829
0.127286
0.126771
0.126288
0.125829
0.125385
0.124964
0.124566
0.124189
0.123832
0.123497
0.123181
0.122882
0.122598
0.122328
0.122073
0.121831
0.121601
0.121387
0.121155
0.134604
0.134639
0.134641
0.134603
0.13453
0.134426
0.134292
0.134132
0.133944
0.133742
0.133533
0.133326
0.133116
0.132893
0.132635
0.13234
0.131994
0.131611
0.131203
0.130779
0.130338
0.129904
0.129487
0.129087
0.12871
0.128355
0.128011
0.127686
0.127377
0.127087
0.126814
0.126557
0.126316
0.126089
0.125872
0.125666
0.125472
0.125291
0.125121
0.124964
0.124798
0.135336
0.135366
0.135369
0.135336
0.135274
0.135184
0.135069
0.134932
0.134776
0.134609
0.134433
0.134256
0.134075
0.133885
0.13367
0.13343
0.133151
0.132845
0.132523
0.13219
0.131846
0.131505
0.131179
0.130866
0.130571
0.130291
0.130023
0.129769
0.129529
0.129302
0.129088
0.128889
0.128704
0.12853
0.128363
0.128206
0.128059
0.12792
0.127791
0.127674
0.127556
0.135941
0.135968
0.135971
0.135943
0.135889
0.135811
0.135711
0.135594
0.13546
0.135316
0.135165
0.135013
0.134858
0.134696
0.134514
0.134315
0.134087
0.133839
0.133582
0.133316
0.133044
0.132773
0.132515
0.132268
0.132034
0.131812
0.131599
0.131399
0.131211
0.131032
0.130864
0.130707
0.130561
0.130426
0.130298
0.130177
0.130064
0.129958
0.12986
0.12977
0.129681
0.13645
0.136474
0.136477
0.136453
0.136405
0.136337
0.13625
0.136148
0.136032
0.135907
0.135777
0.135645
0.135511
0.135371
0.135218
0.13505
0.134861
0.134657
0.134447
0.134232
0.134012
0.133796
0.13359
0.133391
0.133204
0.133027
0.132856
0.132697
0.132548
0.132407
0.132274
0.132149
0.132033
0.131925
0.131825
0.131732
0.131644
0.131563
0.131487
0.131418
0.131352
0.136882
0.136904
0.136907
0.136886
0.136844
0.136784
0.136708
0.136618
0.136516
0.136408
0.136294
0.136179
0.136062
0.13594
0.135809
0.135666
0.135507
0.135338
0.135164
0.134988
0.134808
0.134633
0.134466
0.134305
0.134154
0.13401
0.133873
0.133746
0.133626
0.133513
0.133407
0.133308
0.133215
0.13313
0.133051
0.132978
0.13291
0.132847
0.132789
0.132736
0.132686
0.137253
0.137273
0.137276
0.137258
0.137221
0.137167
0.1371
0.137021
0.136931
0.136836
0.136736
0.136635
0.136532
0.136426
0.136312
0.13619
0.136055
0.135914
0.13577
0.135623
0.135475
0.135331
0.135194
0.135062
0.134939
0.134822
0.134711
0.134608
0.134511
0.13442
0.134335
0.134256
0.134182
0.134114
0.134051
0.133993
0.13394
0.133891
0.133846
0.133805
0.133768
0.137574
0.137592
0.137595
0.137579
0.137546
0.137499
0.137439
0.137369
0.13729
0.137206
0.137118
0.137028
0.136937
0.136844
0.136745
0.136639
0.136525
0.136406
0.136284
0.136161
0.136039
0.13592
0.135806
0.135698
0.135596
0.135501
0.135411
0.135328
0.135249
0.135175
0.135106
0.135042
0.134982
0.134927
0.134877
0.134831
0.134789
0.134751
0.134716
0.134684
0.134656
0.137855
0.137871
0.137873
0.137858
0.137829
0.137787
0.137734
0.137672
0.137602
0.137527
0.137449
0.13737
0.137289
0.137206
0.137119
0.137029
0.136931
0.136829
0.136725
0.136621
0.136519
0.136419
0.136324
0.136234
0.13615
0.136072
0.135998
0.135929
0.135865
0.135804
0.135748
0.135696
0.135648
0.135604
0.135563
0.135526
0.135493
0.135463
0.135435
0.135411
0.13539
0.138101
0.138116
0.138117
0.138104
0.138077
0.13804
0.137992
0.137937
0.137875
0.137809
0.13774
0.137669
0.137597
0.137524
0.137447
0.137367
0.137282
0.137195
0.137106
0.137019
0.136932
0.136848
0.136769
0.136694
0.136624
0.136559
0.136498
0.136441
0.136387
0.136338
0.136291
0.136249
0.13621
0.136174
0.136141
0.136111
0.136085
0.136061
0.13604
0.136021
0.136006
0.138319
0.138332
0.138333
0.13832
0.138296
0.138262
0.13822
0.13817
0.138115
0.138057
0.137995
0.137932
0.137868
0.137803
0.137735
0.137665
0.137591
0.137515
0.13744
0.137365
0.137291
0.13722
0.137153
0.13709
0.137032
0.136977
0.136926
0.136877
0.136833
0.136791
0.136753
0.136719
0.136687
0.136658
0.136632
0.136608
0.136587
0.136569
0.136552
0.136538
0.136527
0.138513
0.138524
0.138524
0.138512
0.13849
0.138459
0.138421
0.138377
0.138328
0.138275
0.13822
0.138164
0.138107
0.138049
0.137989
0.137927
0.137862
0.137797
0.137732
0.137668
0.137605
0.137545
0.137488
0.137436
0.137387
0.137341
0.137297
0.137257
0.137219
0.137184
0.137153
0.137124
0.137099
0.137075
0.137054
0.137035
0.137018
0.137003
0.136991
0.13698
0.136972
0.138685
0.138695
0.138695
0.138684
0.138663
0.138634
0.1386
0.13856
0.138516
0.138469
0.13842
0.13837
0.13832
0.138268
0.138215
0.13816
0.138104
0.138047
0.13799
0.137935
0.137881
0.13783
0.137782
0.137739
0.137697
0.137658
0.137621
0.137586
0.137555
0.137526
0.1375
0.137476
0.137455
0.137435
0.137418
0.137403
0.137389
0.137378
0.137368
0.13736
0.137355
0.138839
0.138848
0.138848
0.138838
0.138819
0.138792
0.13876
0.138724
0.138684
0.138642
0.138598
0.138554
0.138509
0.138463
0.138415
0.138367
0.138318
0.138268
0.138219
0.138172
0.138126
0.138083
0.138043
0.138005
0.137969
0.137935
0.137904
0.137874
0.137847
0.137823
0.137801
0.137781
0.137763
0.137747
0.137732
0.13772
0.137709
0.1377
0.137693
0.137687
0.137683
0.138977
0.138986
0.138986
0.138977
0.138959
0.138935
0.138905
0.138872
0.138836
0.138797
0.138758
0.138718
0.138678
0.138637
0.138595
0.138552
0.138509
0.138465
0.138423
0.138383
0.138343
0.138306
0.138271
0.138238
0.138207
0.138178
0.13815
0.138125
0.138102
0.138082
0.138063
0.138046
0.138031
0.138017
0.138006
0.137995
0.137987
0.13798
0.137974
0.13797
0.137967
0.139101
0.139109
0.13911
0.139102
0.139086
0.139064
0.139037
0.139006
0.138973
0.138938
0.138902
0.138866
0.138829
0.138793
0.138755
0.138718
0.13868
0.138642
0.138605
0.138569
0.138535
0.138503
0.138472
0.138444
0.138417
0.138391
0.138368
0.138346
0.138327
0.138309
0.138293
0.138279
0.138266
0.138255
0.138245
0.138237
0.13823
0.138224
0.13822
0.138217
0.138216
0.139213
0.13922
0.139221
0.139214
0.1392
0.13918
0.139156
0.139128
0.139098
0.139066
0.139033
0.139
0.138966
0.138933
0.1389
0.138867
0.138833
0.1388
0.138768
0.138737
0.138707
0.138679
0.138652
0.138627
0.138604
0.138582
0.138562
0.138543
0.138526
0.138511
0.138498
0.138485
0.138475
0.138465
0.138457
0.13845
0.138445
0.13844
0.138437
0.138435
0.138434
0.139314
0.13932
0.139321
0.139315
0.139303
0.139285
0.139264
0.139239
0.139211
0.139182
0.139152
0.139122
0.139091
0.139061
0.139031
0.139001
0.138972
0.138943
0.138914
0.138887
0.138861
0.138837
0.138814
0.138792
0.138772
0.138753
0.138736
0.13872
0.138705
0.138692
0.13868
0.13867
0.138661
0.138653
0.138646
0.13864
0.138635
0.138632
0.138629
0.138628
0.138627
0.139406
0.139411
0.139411
0.139406
0.139395
0.13938
0.139361
0.139338
0.139314
0.139288
0.139261
0.139233
0.139205
0.139178
0.139151
0.139124
0.139097
0.139072
0.139047
0.139023
0.139
0.138979
0.138959
0.13894
0.138923
0.138907
0.138892
0.138878
0.138865
0.138854
0.138844
0.138835
0.138827
0.13882
0.138814
0.138809
0.138805
0.138802
0.1388
0.138799
0.1388
0.139489
0.139493
0.139493
0.139488
0.139478
0.139465
0.139448
0.139429
0.139407
0.139384
0.13936
0.139335
0.13931
0.139285
0.13926
0.139236
0.139212
0.139189
0.139167
0.139146
0.139126
0.139108
0.13909
0.139074
0.139059
0.139045
0.139032
0.13902
0.139009
0.138999
0.138991
0.138983
0.138976
0.13897
0.138965
0.138961
0.138957
0.138955
0.138954
0.138952
0.138954
0.139566
0.139569
0.139568
0.139563
0.139554
0.139542
0.139527
0.13951
0.139491
0.139471
0.139449
0.139428
0.139405
0.139383
0.139361
0.139339
0.139317
0.139297
0.139277
0.139258
0.139241
0.139225
0.139209
0.139195
0.139182
0.13917
0.139159
0.139149
0.139139
0.139131
0.139123
0.139116
0.13911
0.139105
0.139101
0.139097
0.139094
0.139092
0.139091
0.13909
0.139091
0.139635
0.139637
0.139636
0.139631
0.139623
0.139612
0.139599
0.139584
0.139567
0.13955
0.139531
0.139512
0.139492
0.139473
0.139453
0.139433
0.139414
0.139396
0.139378
0.139361
0.139346
0.139331
0.139318
0.139306
0.139294
0.139284
0.139274
0.139265
0.139257
0.139249
0.139243
0.139237
0.139232
0.139227
0.139223
0.13922
0.139218
0.139216
0.139215
0.139214
0.139215
0.139698
0.139701
0.1397
0.139695
0.139687
0.139677
0.139665
0.139652
0.139637
0.139622
0.139606
0.139589
0.139572
0.139555
0.139538
0.13952
0.139503
0.139487
0.139471
0.139456
0.139442
0.139429
0.139418
0.139407
0.139397
0.139388
0.139379
0.139371
0.139364
0.139358
0.139352
0.139347
0.139342
0.139338
0.139335
0.139332
0.13933
0.139328
0.139327
0.139326
0.139329
0.139757
0.139759
0.139758
0.139753
0.139747
0.139738
0.139727
0.139715
0.139702
0.139689
0.139674
0.13966
0.139645
0.13963
0.139616
0.139601
0.139586
0.139571
0.139557
0.139544
0.139532
0.13952
0.13951
0.1395
0.139491
0.139483
0.139475
0.139469
0.139462
0.139457
0.139452
0.139447
0.139443
0.13944
0.139437
0.139434
0.139432
0.139431
0.139429
0.139429
0.139431
0.13981
0.139812
0.139811
0.139808
0.139802
0.139794
0.139784
0.139774
0.139763
0.139751
0.139739
0.139726
0.139713
0.139701
0.139688
0.139675
0.139662
0.13965
0.139638
0.139626
0.139615
0.139605
0.139596
0.139587
0.139579
0.139572
0.139565
0.139559
0.139553
0.139548
0.139544
0.13954
0.139536
0.139533
0.139531
0.139528
0.139527
0.139525
0.139523
0.139523
0.139525
0.139859
0.139861
0.13986
0.139857
0.139852
0.139846
0.139838
0.13983
0.13982
0.13981
0.1398
0.139789
0.139778
0.139767
0.139756
0.139745
0.139734
0.139724
0.139714
0.139704
0.139694
0.139685
0.139677
0.139669
0.139662
0.139655
0.139649
0.139644
0.139639
0.139634
0.13963
0.139627
0.139623
0.139621
0.139618
0.139616
0.139614
0.139613
0.139611
0.13961
0.13961
0.139904
0.139905
0.139905
0.139903
0.139899
0.139894
0.139889
0.139882
0.139874
0.139866
0.139858
0.139849
0.13984
0.139831
0.139822
0.139813
0.139804
0.139796
0.139787
0.139779
0.139771
0.139763
0.139756
0.139749
0.139742
0.139736
0.139731
0.139726
0.139721
0.139717
0.139713
0.13971
0.139707
0.139705
0.139702
0.1397
0.139699
0.139697
0.139696
0.139695
0.139694
0.139945
0.139946
0.139946
0.139944
0.139942
0.139939
0.139935
0.139931
0.139926
0.139921
0.139915
0.139909
0.139903
0.139896
0.139889
0.139882
0.139876
0.139869
0.139862
0.139856
0.139849
0.139843
0.139837
0.139832
0.139826
0.139821
0.139816
0.139812
0.139808
0.139804
0.139801
0.139797
0.139795
0.139792
0.13979
0.139788
0.139786
0.139784
0.139783
0.139782
0.13978
0.139983
0.139983
0.139983
0.139983
0.139982
0.139981
0.13998
0.139978
0.139976
0.139974
0.139972
0.13997
0.139967
0.139964
0.139961
0.139958
0.139955
0.139951
0.139948
0.139944
0.139941
0.139938
0.139935
0.139931
0.139928
0.139925
0.139922
0.13992
0.139917
0.139914
0.139912
0.139909
0.139907
0.139905
0.139903
0.139901
0.139899
0.139897
0.139895
0.139894
0.139892
0.00255898
0.00400855
0.00548638
0.00689178
0.00828116
0.00998017
0.0106063
0.0131229
0.0305682
0.0563352
0.0776527
0.0923832
0.102492
0.109766
0.115233
0.119466
0.122813
0.125503
0.127693
0.129498
0.131001
0.132264
0.133332
0.134241
0.135019
0.135688
0.136267
0.136768
0.137204
0.137585
0.13792
0.138214
0.138474
0.138703
0.138907
0.139088
0.13925
0.139396
0.139528
0.139648
0.139759
0.139861
0.139957
0.140045
0.140128
0.140206
0.14028
0.14035
0.140418
0.140482
0.140544
0.140604
0.140661
0.140716
0.140769
0.14082
0.140869
0.140916
0.14096
0.141002
0.141042
0.141078
0.141112
0.141143
0.141171
0.141196
0.141218
0.141237
0.141254
0.141267
0.141278
0.141285
0.141293
0.141292
0.00403293
0.0052595
0.0064633
0.00768582
0.00894193
0.0105202
0.0112214
0.0129113
0.0284941
0.0535161
0.0750852
0.0902729
0.10077
0.108341
0.114034
0.118446
0.121937
0.124745
0.127034
0.128922
0.130495
0.131818
0.132939
0.133894
0.134712
0.135416
0.136026
0.136555
0.137015
0.137419
0.137772
0.138084
0.138359
0.138602
0.138817
0.139009
0.13918
0.139334
0.139473
0.1396
0.139716
0.139824
0.139923
0.140016
0.140102
0.140184
0.140261
0.140334
0.140404
0.140472
0.140537
0.1406
0.14066
0.140718
0.140774
0.140828
0.140881
0.140931
0.140979
0.141025
0.141068
0.141109
0.141146
0.141181
0.141213
0.141241
0.141267
0.141289
0.141308
0.141324
0.141338
0.141347
0.141357
0.141358
0.00578737
0.00692105
0.00799538
0.0090668
0.0101595
0.011536
0.0124087
0.0130278
0.024897
0.0479597
0.0696253
0.0856044
0.096873
0.105065
0.111249
0.116055
0.119869
0.122943
0.125456
0.127534
0.12927
0.130733
0.131976
0.133037
0.133949
0.134737
0.13542
0.136014
0.136533
0.136988
0.137389
0.137742
0.138054
0.13833
0.138575
0.138793
0.138987
0.139162
0.139319
0.139462
0.139593
0.139713
0.139824
0.139927
0.140023
0.140112
0.140197
0.140278
0.140355
0.140429
0.1405
0.140569
0.140635
0.1407
0.140762
0.140823
0.140882
0.140939
0.140995
0.141048
0.141099
0.141148
0.141193
0.141236
0.141275
0.141311
0.141344
0.141374
0.1414
0.141423
0.141443
0.141458
0.141472
0.14148
0.00779262
0.00877757
0.00973582
0.0106976
0.0116763
0.0128582
0.0139279
0.0140368
0.0209738
0.0401644
0.0612679
0.0780439
0.0903776
0.099515
0.10648
0.111928
0.116275
0.119796
0.122687
0.125089
0.127102
0.128805
0.130257
0.131503
0.132577
0.133508
0.13432
0.135029
0.13565
0.136197
0.136679
0.137106
0.137484
0.137819
0.138117
0.138382
0.138619
0.138831
0.139022
0.139195
0.139353
0.139497
0.139629
0.13975
0.139862
0.139967
0.140066
0.140159
0.140247
0.140332
0.140414
0.140492
0.140569
0.140643
0.140715
0.140786
0.140855
0.140923
0.140989
0.141053
0.141116
0.141176
0.141233
0.141287
0.141338
0.141386
0.14143
0.141471
0.141508
0.14154
0.14157
0.141594
0.141616
0.141634
0.00989906
0.0107523
0.011604
0.0124683
0.0133599
0.0143791
0.0155237
0.0159052
0.0185175
0.0314495
0.0503439
0.0674882
0.0808946
0.091213
0.0992412
0.105597
0.110719
0.114899
0.118354
0.121243
0.123677
0.125746
0.127521
0.12905
0.130375
0.131529
0.13254
0.133428
0.13421
0.1349
0.135511
0.136054
0.136537
0.136967
0.13735
0.137692
0.137997
0.138271
0.138517
0.138739
0.13894
0.139123
0.139289
0.139442
0.139582
0.139711
0.139832
0.139945
0.140052
0.140153
0.140251
0.140344
0.140434
0.140522
0.140608
0.140691
0.140774
0.140855
0.140935
0.141014
0.14109
0.141165
0.141237
0.141307
0.141373
0.141436
0.141495
0.141551
0.141601
0.141648
0.14169
0.141726
0.141759
0.14179
0.0120329
0.0127967
0.0135792
0.0143798
0.0152144
0.016128
0.0172017
0.0180603
0.0188437
0.0246614
0.0383265
0.0543517
0.0684525
0.0798501
0.0890856
0.0965611
0.102699
0.107767
0.111996
0.115566
0.118595
0.121184
0.12342
0.125359
0.127048
0.128525
0.129826
0.130976
0.131994
0.132897
0.1337
0.134416
0.135056
0.135628
0.13614
0.136598
0.137008
0.137376
0.137706
0.138004
0.138273
0.138517
0.138738
0.138939
0.139123
0.139291
0.139446
0.139591
0.139725
0.139852
0.139973
0.140087
0.140197
0.140304
0.140407
0.140507
0.140607
0.140704
0.140801
0.140897
0.140991
0.141084
0.141174
0.141261
0.141346
0.141427
0.141505
0.141578
0.141646
0.141709
0.141767
0.141818
0.141863
0.141912
0.0142664
0.014992
0.0157538
0.0165399
0.017361
0.0182401
0.019226
0.0202753
0.0211191
0.0228755
0.0292233
0.0407452
0.0538421
0.0658334
0.0760422
0.0845708
0.0918453
0.0979654
0.103152
0.107601
0.111411
0.11469
0.117547
0.120048
0.122236
0.124159
0.125862
0.127377
0.128728
0.129932
0.131006
0.131968
0.132833
0.133609
0.134307
0.134934
0.135497
0.136003
0.136458
0.136869
0.13724
0.137576
0.137879
0.138155
0.138404
0.138632
0.13884
0.139032
0.139209
0.139374
0.139528
0.139674
0.139812
0.139944
0.140071
0.140194
0.140314
0.140432
0.14055
0.140665
0.14078
0.140893
0.141004
0.141113
0.141218
0.141321
0.14142
0.141514
0.141602
0.141685
0.141762
0.141831
0.141892
0.141963
0.0168855
0.0176274
0.0184196
0.0192399
0.020091
0.0209881
0.0219516
0.0229999
0.0240749
0.0251738
0.027228
0.0322205
0.0406939
0.0509547
0.0611398
0.0703738
0.0785029
0.0855364
0.0916745
0.0971043
0.10182
0.105919
0.109545
0.112756
0.115588
0.118088
0.120315
0.122312
0.124108
0.125716
0.127158
0.128455
0.129625
0.130682
0.131637
0.132499
0.133276
0.133978
0.13461
0.135182
0.1357
0.136168
0.136592
0.136975
0.137323
0.137638
0.137925
0.138187
0.138427
0.138648
0.138853
0.139044
0.139222
0.139391
0.139551
0.139704
0.139852
0.139997
0.140139
0.14028
0.140418
0.140555
0.14069
0.140822
0.140952
0.141079
0.141203
0.141321
0.141434
0.14154
0.141639
0.14173
0.141809
0.141908
0.0203951
0.0211938
0.0220528
0.0229376
0.0238434
0.0247794
0.025758
0.026792
0.0278921
0.029053
0.0303365
0.0321869
0.035527
0.0409961
0.0482381
0.0562837
0.0642779
0.0717387
0.0785405
0.0846789
0.0901467
0.0949981
0.0994144
0.103408
0.106966
0.110132
0.112973
0.115551
0.117901
0.120018
0.121925
0.123647
0.12521
0.12663
0.127919
0.129093
0.130157
0.13112
0.131991
0.132781
0.133498
0.13415
0.13474
0.135276
0.135761
0.136201
0.1366
0.136963
0.137294
0.137596
0.137874
0.138131
0.138368
0.138589
0.138795
0.138991
0.139177
0.139357
0.139531
0.139703
0.139871
0.140036
0.140199
0.14036
0.140518
0.140673
0.140825
0.140973
0.141114
0.141248
0.141374
0.141491
0.141592
0.141726
0.025393
0.0262372
0.0271515
0.0280864
0.0290315
0.0299902
0.0309722
0.0319873
0.0330493
0.0341769
0.0353836
0.0367032
0.0382923
0.0405059
0.0437622
0.0482439
0.053752
0.0598469
0.0661001
0.0722002
0.0779556
0.0832931
0.0882405
0.0927912
0.096934
0.100686
0.104099
0.107246
0.110198
0.112873
0.115298
0.117504
0.119519
0.121363
0.123051
0.124607
0.126024
0.127313
0.128485
0.12955
0.130521
0.131409
0.132217
0.132953
0.133621
0.134228
0.134779
0.135279
0.135734
0.136149
0.136529
0.136876
0.137196
0.13749
0.137763
0.138016
0.138255
0.138482
0.1387
0.138911
0.139117
0.139318
0.139516
0.13971
0.139902
0.140091
0.140278
0.140459
0.140634
0.140802
0.140961
0.141112
0.141242
0.141421
0.0323524
0.0331351
0.0340187
0.0349309
0.0358522
0.0367806
0.0377213
0.0386817
0.0396725
0.0407097
0.0418093
0.0429798
0.0442323
0.0456112
0.0472303
0.0492701
0.0519122
0.0552492
0.0592364
0.0637112
0.0684574
0.073281
0.0780454
0.0826482
0.0870156
0.0911106
0.0949386
0.0985258
0.101882
0.104986
0.107845
0.110479
0.112914
0.115164
0.11724
0.119207
0.121006
0.122652
0.124157
0.125531
0.126793
0.127955
0.129018
0.129997
0.13089
0.131702
0.132441
0.133113
0.133726
0.134285
0.134796
0.135263
0.13569
0.136082
0.136443
0.136775
0.137084
0.137374
0.137648
0.137912
0.138166
0.138412
0.138652
0.138887
0.13912
0.139351
0.139578
0.1398
0.140016
0.140226
0.140427
0.140619
0.140784
0.141022
0.0413639
0.0419401
0.0426543
0.0434308
0.0442402
0.0450687
0.0459106
0.0467675
0.0476472
0.0485613
0.0495208
0.0505323
0.0515975
0.0527182
0.0539062
0.0551942
0.0566438
0.0583398
0.0603694
0.0627927
0.0656209
0.0688144
0.0722973
0.0759708
0.0797315
0.0834904
0.0871868
0.0907821
0.0942436
0.0975403
0.100655
0.103586
0.106341
0.108926
0.111345
0.113608
0.115709
0.117655
0.119452
0.121108
0.12264
0.124064
0.125374
0.12661
0.12774
0.128773
0.129717
0.130579
0.131369
0.13209
0.132752
0.133359
0.133917
0.134428
0.134894
0.135323
0.135718
0.136086
0.136431
0.136759
0.137071
0.137372
0.137664
0.137949
0.13823
0.138509
0.138784
0.139051
0.139317
0.139577
0.139829
0.140073
0.140281
0.140591
0.0521493
0.0524706
0.0528768
0.0533873
0.0539945
0.0546499
0.0553294
0.0560323
0.0567637
0.0575274
0.0583256
0.0591599
0.060032
0.060943
0.0618943
0.0628893
0.0639369
0.0650553
0.0662748
0.0676356
0.0691817
0.0709518
0.0729705
0.0752412
0.0777438
0.0804403
0.0832844
0.0862272
0.0892188
0.0922109
0.0951623
0.098043
0.100833
0.103518
0.106085
0.108525
0.110829
0.112998
0.11503
0.116928
0.1187
0.120355
0.121892
0.123322
0.124643
0.125861
0.126982
0.128013
0.128963
0.129833
0.130641
0.13138
0.132075
0.132709
0.133288
0.133818
0.134306
0.134758
0.13518
0.135578
0.135955
0.136315
0.136663
0.137003
0.137337
0.137667
0.137994
0.138307
0.13863
0.138948
0.139255
0.139555
0.139812
0.140202
0.0641342
0.0643143
0.0645482
0.0647967
0.0650577
0.0653549
0.0657563
0.0662539
0.0668067
0.0673867
0.0679895
0.0686219
0.0692894
0.0699933
0.0707313
0.0715004
0.0722984
0.0731275
0.0739954
0.0749149
0.0759029
0.0769798
0.0781674
0.0794872
0.0809572
0.0825892
0.0843869
0.0863447
0.088447
0.0906698
0.0929837
0.0953579
0.0977629
0.100171
0.102557
0.104898
0.107173
0.109369
0.111475
0.113483
0.115388
0.117189
0.118884
0.120473
0.121957
0.123339
0.124621
0.125809
0.126908
0.127923
0.128859
0.129721
0.130516
0.131246
0.131916
0.132531
0.133097
0.133622
0.13411
0.134569
0.135003
0.135417
0.135816
0.136204
0.136585
0.136961
0.137332
0.137697
0.138058
0.138414
0.13876
0.139099
0.13939
0.139842
0.0766617
0.0767082
0.0767999
0.0769008
0.0770096
0.0771312
0.0772726
0.0774417
0.0776412
0.0778782
0.0782029
0.078618
0.0790923
0.0796015
0.0801321
0.0806771
0.0812391
0.0818262
0.0824456
0.083102
0.0837986
0.0845384
0.0853259
0.086169
0.0870802
0.088074
0.0891642
0.0903617
0.0916737
0.0931027
0.0946465
0.0962976
0.0980444
0.0998714
0.10176
0.103689
0.105638
0.107587
0.109517
0.111413
0.11326
0.115047
0.116764
0.118404
0.119961
0.121433
0.122817
0.124114
0.125324
0.12645
0.127493
0.128457
0.129346
0.130165
0.130917
0.131607
0.132242
0.132827
0.13337
0.133875
0.13435
0.134799
0.135228
0.135642
0.136046
0.136442
0.136832
0.137216
0.137595
0.137968
0.138332
0.138691
0.138999
0.139489
0.0889853
0.0889207
0.0888902
0.0888662
0.088847
0.0888364
0.088839
0.0888593
0.0889012
0.0889674
0.0890609
0.0891849
0.0893419
0.0895334
0.0897566
0.0900115
0.0903284
0.0907126
0.0911447
0.0916089
0.092097
0.0926042
0.0931304
0.0936845
0.094281
0.0949296
0.0956342
0.0963979
0.0972252
0.0981226
0.0990975
0.100155
0.101298
0.102526
0.103835
0.105219
0.106668
0.108171
0.109713
0.11128
0.112858
0.114432
0.115988
0.117514
0.118999
0.120432
0.121808
0.123119
0.124361
0.125531
0.126627
0.12765
0.1286
0.129478
0.130289
0.131035
0.13172
0.13235
0.132931
0.133468
0.133968
0.134436
0.134878
0.135299
0.135706
0.136101
0.136488
0.136868
0.137242
0.13761
0.13797
0.138329
0.138636
0.139137
0.100242
0.100107
0.0999948
0.0998864
0.0997802
0.0996788
0.0995854
0.0995037
0.0994371
0.0993884
0.0993599
0.0993534
0.0993701
0.0994109
0.0994763
0.0995658
0.0996798
0.0998193
0.0999858
0.100181
0.100404
0.100651
0.100919
0.101231
0.101623