/*--------------------------------*- C++ -*----------------------------------*\
  =========                 |
  \\      /  F ield         | OpenFOAM: The Open Source CFD Toolbox
   \\    /   O peration     | Website:  https://openfoam.org
    \\  /    A nd           | Version:  11
     \\/     M anipulation  |
\*---------------------------------------------------------------------------*/
FoamFile
{
    format      ascii;
    class       volScalarField;
    location    "50";
    object      p;
}
// * * * * * * * * * * * * * * * * * * * * * * * * * * * * * * * * * * * * * //

dimensions      [0 2 -2 0 0 0 0];

internalField   nonuniform List<scalar> 
11040
(
374.134
354.152
306.799
234.86
150.733
43.7319
-63.8695
-138.766
-130.908
-121.727
-150.376
-208.358
-342.38
-510.547
-656.338
-669.039
-596.242
-390.705
-259.172
-211.32
-185.417
-161.206
-141.055
-126.004
-115.165
-109.107
-97.1118
-74.8526
-60.7315
-50.2662
-40.0626
-30.2402
-21.0861
-12.1001
-2.76099
7.20963
17.4522
27.8774
37.8845
49.6492
59.0295
366.955
347.559
305.191
242.597
167.306
74.8182
-19.6154
-88.9438
-106.698
-112.381
-144.649
-202.924
-321.007
-466.723
-593.859
-617.153
-570.704
-399.506
-269.778
-216.335
-187.932
-163.074
-142.493
-127.035
-115.729
-108.947
-97.1442
-75.8802
-61.5628
-50.8841
-40.6021
-30.7197
-21.5224
-12.5435
-3.25282
6.66611
16.8897
27.3382
37.3258
49.1489
57.975
354.821
336.795
299.017
243.602
175.162
92.8684
6.89058
-62.4686
-97.0407
-112.152
-143.07
-198.183
-300.337
-427.601
-543.356
-577.853
-546.785
-406.035
-278.097
-218.861
-189.026
-164.207
-143.398
-127.593
-115.846
-108.35
-96.9531
-76.8334
-62.1288
-51.2008
-40.8805
-30.9744
-21.7942
-12.9119
-3.7448
6.09843
16.34
26.8574
36.8337
48.5546
56.6926
339.085
322.378
288.834
240.444
179.867
107.924
31.4309
-34.6096
-79.0954
-103.49
-135.859
-189.25
-278.18
-388.047
-491.959
-535.919
-520.662
-407.51
-286.069
-222.182
-190.498
-165.57
-144.48
-128.26
-116.036
-107.731
-96.6434
-77.7912
-62.8247
-51.6412
-41.2774
-31.3604
-22.2279
-13.4918
-4.4825
5.28088
15.571
26.1746
36.1196
47.5349
54.8735
320.047
304.623
275.212
233.611
181.119
119.085
52.1197
-8.75427
-58.7112
-92.44
-127.486
-178.653
-255.211
-348.096
-438.631
-487.247
-487.471
-403.747
-294.138
-226.75
-192.339
-167.102
-145.77
-129.069
-116.3
-107.083
-96.1763
-78.7594
-63.7477
-52.2781
-41.8508
-31.9248
-22.8297
-14.2379
-5.41765
4.20935
14.4914
25.1297
35.0031
45.9399
52.4269
298.071
283.935
258.477
223.205
178.611
125.966
68.3261
13.6079
-37.5523
-78.1029
-115.942
-164.731
-230.475
-308.072
-385.502
-435.842
-449.126
-394.115
-300.478
-231.792
-194.319
-168.641
-147.197
-130.006
-116.642
-106.477
-95.5899
-79.6502
-64.8439
-53.1135
-42.6179
-32.6701
-23.5527
-15.0561
-6.46366
2.89485
13.004
23.5568
33.339
43.733
49.5471
273.739
260.888
239.106
209.571
172.346
128.366
79.5994
31.5961
-17.2729
-61.2217
-101.318
-147.843
-204.405
-268.773
-333.958
-383.315
-406.292
-377.023
-302.95
-236.637
-196.486
-170.13
-148.668
-131.033
-117.045
-105.974
-94.9592
-80.3796
-66.0354
-54.1476
-43.5954
-33.6215
-24.4221
-15.948
-7.60151
1.33521
11.0447
21.3242
30.9833
40.8648
46.3656
247.754
236.162
217.709
193.251
162.635
126.437
85.8798
44.7353
0.501063
-43.3456
-84.224
-128.345
-177.228
-230.569
-284.87
-330.935
-359.727
-351.692
-299.38
-239.975
-198.555
-171.391
-149.983
-132.046
-117.46
-105.573
-94.3242
-80.8637
-67.181
-55.2954
-44.731
-34.7731
-25.4969
-16.9903
-8.8596
-0.425657
8.68205
18.4563
27.8775
37.2654
42.8081
220.883
210.501
194.994
174.925
150.038
120.625
87.4312
52.9282
14.5678
-26.2812
-65.8971
-107.11
-149.564
-193.945
-239.005
-280.384
-311.382
-318.869
-287.992
-239.795
-199.713
-172.086
-150.84
-132.839
-117.79
-105.226
-93.7027
-81.0802
-68.1591
-56.4616
-45.9701
-36.1198
-26.8567
-18.3195
-10.3291
-2.34917
6.07892
15.1383
24.0979
32.8978
38.6059
193.903
184.666
171.712
155.361
135.3
111.654
84.861
56.5081
24.3642
-11.6068
-47.9761
-85.4702
-122.341
-159.486
-196.919
-233.067
-263.477
-280.484
-268.061
-233.913
-198.573
-171.613
-150.795
-133.051
-117.811
-104.793
-93.0475
-81.0378
-68.8986
-57.5805
-47.2925
-37.6662
-28.5533
-20.0479
-12.1305
-4.4713
3.33002
11.5527
19.7763
27.782
33.459
167.547
159.38
148.609
135.351
119.275
100.416
79.0397
56.1468
29.942
-0.323553
-32.0399
-64.9831
-96.7081
-127.873
-159.006
-189.94
-217.945
-239.257
-240.459
-220.769
-193.321
-168.949
-149.215
-132.18
-117.175
-104.047
-92.2536
-80.7468
-69.3736
-58.6077
-48.6759
-39.3891
-30.5515
-22.1938
-14.3547
-6.93107
0.340744
7.69356
14.9725
21.972
27.2873
142.461
135.292
126.367
115.652
102.816
87.8627
70.9639
52.746
31.8432
7.27941
-19.1658
-47.0169
-73.801
-99.7951
-125.608
-151.614
-176.261
-198.11
-207.597
-200.261
-182.383
-162.744
-145.231
-129.576
-115.394
-102.65
-91.1241
-80.1723
-69.5698
-59.4792
-50.0509
-41.1888
-32.7397
-24.6629
-17.0369
-9.87535
-3.11122
3.42452
9.68828
15.6297
20.3644
119.176
112.933
105.566
96.9289
86.7042
74.8977
61.6313
47.2984
30.9046
11.5123
-9.73361
-32.4266
-54.4559
-75.8208
-96.9977
-118.467
-139.393
-159.512
-172.699
-174.064
-165.345
-151.885
-137.897
-124.498
-111.859
-100.122
-89.3281
-79.1376
-69.375
-60.0562
-51.2485
-42.9061
-34.9407
-27.3093
-20.0848
-13.339
-7.10604
-1.30735
4.07688
9.10191
13.2885
98.0674
92.6873
86.6353
79.694
71.5688
62.2799
51.9227
40.7457
28.0502
13.0566
-3.52471
-21.424
-39.0365
-56.2235
-73.2924
-90.653
-107.859
-125.154
-138.863
-145.091
-143.451
-136.247
-126.653
-116.337
-105.965
-95.8969
-86.3593
-77.2556
-68.4801
-60.0459
-51.9734
-44.2784
-36.9116
-29.8924
-23.2454
-17.074
-11.3957
-6.21651
-1.46526
2.91776
6.72874
79.3541
74.7778
69.8387
64.2824
57.8455
50.5634
42.5155
33.8598
24.1205
12.702
0.0404753
-13.7096
-27.4178
-40.9154
-54.3766
-68.0986
-81.8254
-95.9695
-108.403
-116.469
-119.2
-117.063
-111.83
-104.985
-97.3654
-89.4694
-81.6487
-73.9591
-66.3863
-58.98
-51.8071
-44.9031
-38.2967
-32.0032
-26.0681
-20.525
-15.4126
-10.7102
-6.39975
-2.40602
1.14793
63.1845
59.3504
55.3478
50.9156
45.8298
40.1373
33.905
27.2327
19.8063
11.1966
1.6741
-8.68108
-19.1121
-29.4741
-39.8586
-50.4616
-61.1236
-72.2521
-82.6445
-90.6306
-95.3398
-96.4631
-94.7053
-91.0421
-86.1846
-80.6234
-74.744
-68.6933
-62.5176
-56.3235
-50.2251
-44.2914
-38.5798
-33.1163
-27.9372
-23.0516
-18.4846
-14.226
-10.2852
-6.62878
-3.34633
49.6412
46.4817
43.2675
39.7455
35.7391
31.3021
26.4886
21.3609
15.7158
9.25928
2.16144
-5.53882
-13.3505
-21.167
-29.0346
-37.0742
-45.1834
-53.6906
-61.9238
-68.877
-73.9374
-76.6217
-77.0546
-75.7485
-73.1686
-69.6954
-65.6731
-61.2802
-56.5895
-51.7327
-46.8461
-42.0134
-37.2993
-32.7339
-28.3527
-24.1656
-20.2018
-16.4694
-13.0007
-9.79635
-6.92838
39.021
36.4082
33.8344
31.0199
27.8363
24.3451
20.5872
16.6029
12.2589
7.35813
2.01148
-3.76243
-9.64426
-15.5602
-21.5318
-27.6282
-33.774
-40.2053
-46.5441
-52.1833
-56.7271
-59.7512
-61.1637
-61.198
-60.114
-58.1649
-55.6181
-52.6391
-49.2929
-45.7009
-41.9885
-38.2376
-34.5105
-30.8454
-27.2845
-23.8525
-20.5878
-17.5125
-14.6641
-12.0526
-9.72729
30.9504
28.7715
26.6892
24.4081
21.8393
19.0467
16.0615
12.9103
9.50414
5.70959
1.60321
-2.80453
-7.29942
-11.8296
-16.4044
-21.063
-25.7511
-30.6298
-35.4744
-39.9102
-43.6854
-46.4766
-48.1468
-48.7959
-48.5592
-47.5915
-46.0831
-44.1659
-41.8845
-39.3351
-36.6207
-33.8159
-30.9797
-28.1577
-25.3963
-22.7295
-20.1946
-17.8144
-15.6158
-13.6036
-11.8039
24.7701
22.9463
21.2449
19.3752
17.2763
15.0118
12.6045
10.0739
7.35864
4.3687
1.15867
-2.26301
-5.74852
-9.25966
-12.7994
-16.3889
-19.989
-23.7105
-27.4156
-30.8641
-33.8954
-36.2736
-37.8761
-38.7445
-38.9468
-38.5728
-37.7523
-36.5814
-35.0873
-33.3423
-31.4294
-29.4136
-27.3487
-25.2789
-23.246
-21.2807
-19.4103
-17.6497
-16.0121
-14.496
-13.1109
19.9695
18.437
17.0356
15.4875
13.7558
11.8976
9.93328
7.87411
5.68127
3.29
0.744514
-1.95111
-4.68827
-7.44164
-10.2076
-13.0004
-15.789
-18.6538
-21.5043
-24.185
-26.5901
-28.5512
-29.9706
-30.8665
-31.272
-31.2394
-30.8553
-30.1889
-29.2569
-28.1133
-26.8226
-25.4372
-23.9998
-22.5464
-21.107
-19.7042
-18.3537
-17.0637
-15.8395
-14.6783
-13.5844
16.196
14.9062
13.7429
12.4518
11.01
9.47175
7.85088
6.15851
4.36538
2.42998
0.382989
-1.76801
-3.94745
-6.13271
-8.32269
-10.5224
-12.7115
-14.9442
-17.1625
-19.2604
-21.1691
-22.7667
-23.9808
-24.8193
-25.2994
-25.4522
-25.3365
-25.0021
-24.4589
-23.7455
-22.9087
-21.9869
-21.0105
-20.0045
-18.9896
-17.9807
-16.9876
-16.0167
-15.0702
-14.1508
-13.2581
13.2034
12.1155
11.1424
10.0583
8.84883
7.5649
6.21514
4.81091
3.32952
1.74528
0.0794192
-1.65864
-3.41585
-5.17254
-6.92922
-8.68571
-10.4283
-12.1931
-13.942
-15.6006
-17.1237
-18.4225
-19.4449
-20.1947
-20.6817
-20.925
-20.9646
-20.8352
-20.5422
-20.1113
-19.5754
-18.9607
-18.2886
-17.5766
-16.8399
-16.0903
-15.3358
-14.5836
-13.8367
-13.1007
-12.3763
10.8129
9.89134
9.07367
8.15645
7.13602
6.05526
4.92349
3.74729
2.51386
1.203
-0.165424
-1.58652
-3.01782
-4.44722
-5.87167
-7.29236
-8.69586
-10.1091
-11.5031
-12.8271
-14.0488
-15.1045
-15.9554
-16.6047
-17.0574
-17.3256
-17.4362
-17.4136
-17.2599
-16.9929
-16.6356
-16.2075
-15.7242
-15.1998
-14.6466
-14.0744
-13.4919
-12.9046
-12.3187
-11.7358
-11.1622
8.89051
8.11001
7.41668
6.63665
5.76971
4.85442
3.89793
2.9064
1.87082
0.777961
-0.356699
-1.52832
-2.70524
-3.8778
-5.0434
-6.20168
-7.34198
-8.48243
-9.60201
-10.664
-11.6458
-12.5001
-13.1988
-13.744
-14.1385
-14.3901
-14.5174
-14.5381
-14.4533
-14.2767
-14.0254
-13.7146
-13.357
-12.964
-12.546
-12.1115
-11.668
-11.2199
-10.7725
-10.3267
-9.88781
7.33875
6.67275
6.08362
5.41541
4.67514
3.89482
3.08212
2.24054
1.36614
0.448419
-0.498266
-1.47122
-2.44465
-3.41249
-4.37079
-5.31985
-6.24968
-7.17382
-8.07539
-8.9287
-9.71658
-10.4044
-10.9714
-11.4197
-11.7505
-11.9695
-12.0905
-12.1264
-12.079
-11.9581
-11.7779
-11.5497
-11.2842
-10.99
-10.6762
-10.3489
-10.0149
-9.67707
-9.34005
-9.00394
-8.67302
6.07664
5.51157
5.00487
4.43081
3.79475
3.12657
2.43134
1.71413
0.971177
0.197322
-0.597469
-1.40862
-2.21804
-3.01899
-3.80978
-4.58838
-5.34845
-6.09789
-6.8254
-7.51103
-8.14354
-8.69601
-9.1544
-9.52007
-9.79428
-9.98102
-10.0903
-10.1326
-10.1089
-10.0277
-9.89888
-9.73224
-9.53517
-9.31554
-9.07955
-8.83335
-8.58104
-8.32674
-8.07241
-7.82007
-7.5716
5.05112
4.56595
4.1318
3.63448
3.08567
2.50975
1.91249
1.29773
0.663947
0.0077749
-0.662042
-1.34165
-2.01664
-2.68182
-3.33543
-3.97573
-4.59762
-5.20678
-5.79478
-6.34721
-6.85615
-7.30156
-7.67357
-7.97366
-8.20252
-8.36321
-8.46302
-8.50982
-8.50438
-8.45313
-8.36362
-8.24333
-8.09819
-7.93431
-7.75676
-7.57059
-7.37957
-7.18731
-6.99616
-6.80777
-6.62482
4.2104
3.79888
3.42015
2.98953
2.51272
2.01448
1.49834
0.969247
0.425638
-0.13287
-0.700206
-1.27143
-1.83658
-2.39014
-2.93192
-3.45918
-3.9692
-4.46506
-4.94159
-5.3876
-5.79848
-6.15876
-6.46223
-6.70982
-6.90217
-7.04112
-7.13186
-7.18011
-7.18625
-7.15525
-7.09276
-7.00489
-6.89626
-6.77207
-6.63668
-6.49435
-6.34881
-6.20291
-6.0594
-5.91909
-5.78532
3.52476
3.16887
2.84245
2.46466
2.04988
1.61625
1.16863
0.710607
0.24274
-0.235444
-0.717357
-1.20002
-1.67412
-2.13678
-2.5863
-3.02204
-3.44055
-3.84549
-4.23193
-4.59295
-4.92473
-5.21662
-5.46404
-5.6682
-5.82932
-5.94837
-6.02916
-6.07516
-6.08715
-6.06825
-6.02359
-5.95753
-5.87455
-5.77877
-5.67408
-5.56439
-5.45245
-5.34145
-5.23287
-5.1283
-5.02967
2.95886
2.65689
2.3681
2.03896
1.67587
1.29711
0.906798
0.508479
0.103631
-0.307411
-0.718859
-1.12812
-1.52771
-1.9155
-2.29007
-2.65113
-2.99601
-3.32765
-3.64233
-3.93536
-4.20416
-4.44125
-4.64364
-4.81273
-4.94848
-5.05152
-5.12415
-5.16862
-5.18513
-5.17581
-5.14456
-5.09477
-5.03029
-4.95471
-4.87146
-4.78411
-4.69507
-4.60739
-4.52223
-4.44128
-4.36622
2.49593
2.23323
1.98312
1.69242
1.37371
1.04162
0.699539
0.351774
-0.000273342
-0.355075
-0.708054
-1.05652
-1.39483
-1.72114
-2.03459
-2.33496
-2.62042
-2.89322
-3.15069
-3.38948
-3.60809
-3.80117
-3.96711
-4.10742
-4.22217
-4.3117
-4.37739
-4.42043
-4.44046
-4.4386
-4.41752
-4.37975
-4.3284
-4.26653
-4.19724
-4.12379
-4.04846
-3.97428
-3.90241
-3.83445
-3.77241
2.11144
1.88832
1.66523
1.40991
1.12985
0.836818
0.536335
0.230983
-0.0759972
-0.383937
-0.687675
-0.985897
-1.27319
-1.54907
-1.81215
-2.06311
-2.30008
-2.52546
-2.73671
-2.932
-3.10998
-3.26737
-3.40305
-3.51911
-3.61546
-3.69285
-3.75187
-3.79317
-3.81589
-3.82009
-3.80745
-3.77936
-3.73835
-3.68668
-3.62729
-3.56306
-3.49631
-3.43001
-3.36541
-3.30439
-3.24932
1.79543
1.60023
1.40571
1.17944
0.931279
0.673128
0.407665
0.139162
-0.130087
-0.397903
-0.660798
-0.916533
-1.16183
-1.39537
-1.61713
-1.82692
-2.0243
-2.21021
-2.38372
-2.54273
-2.68709
-2.8138
-2.92332
-3.0168
-3.09523
-3.15903
-3.20911
-3.24582
-3.26803
-3.27562
-3.26871
-3.24838
-3.21566
-3.17266
-3.1216
-3.06494
-3.00541
-2.9449
-2.88628
-2.82963
-2.77999
1.53066
1.36457
1.18992
0.989957
0.77131
0.541875
0.307175
0.069879
-0.166829
-0.40102
-0.629296
-0.849832
-1.05985
-1.25849
-1.44582
-1.62168
-1.78591
-1.93943
-2.08152
-2.21071
-2.32731
-2.42886
-2.51599
-2.58987
-2.65162
-2.70184
-2.74167
-2.7715
-2.79029
-2.79781
-2.79353
-2.77791
-2.75103
-2.71455
-2.67
-2.61968
-2.56606
-2.51115
-2.45782
-2.40619
-2.36144
1.31133
1.1655
1.01285
0.835357
0.640074
0.437567
0.228846
0.018989
-0.190039
-0.395373
-0.594599
-0.785449
-0.966063
-1.13538
-1.29362
-1.44084
-1.5772
-1.70333
-1.81897
-1.92311
-2.01602
-2.09596
-2.16365
-2.21992
-2.26566
-2.30173
-2.32907
-2.34864
-2.35978
-2.36274
-2.35664
-2.34186
-2.31785
-2.28566
-2.246
-2.20082
-2.15223
-2.10204
-2.05305
-2.0052
-1.96376
1.12479
1.001
0.864043
0.706667
0.535114
0.354158
0.169376
-0.0167875
-0.201515
-0.382575
-0.557062
-0.72326
-0.879009
-1.02371
-1.15732
-1.28024
-1.39242
-1.49489
-1.58746
-1.66974
-1.74193
-1.80308
-1.85347
-1.89383
-1.92485
-1.9473
-1.96248
-1.97121
-1.97407
-1.97093
-1.96223
-1.94731
-1.92629
-1.89874
-1.86537
-1.82711
-1.78526
-1.74199
-1.69859
-1.65686
-1.61964
0.967423
0.85931
0.739974
0.601028
0.448115
0.289255
0.125727
-0.0390852
-0.20281
-0.363092
-0.517114
-0.662931
-0.798493
-0.923052
-1.03641
-1.13885
-1.23075
-1.31304
-1.38582
-1.44923
-1.50373
-1.54859
-1.58441
-1.61184
-1.63139
-1.64353
-1.64958
-1.65036
-1.64682
-1.63925
-1.62838
-1.61398
-1.59591
-1.57369
-1.54725
-1.51717
-1.48379
-1.44921
-1.41413
-1.38069
-1.35154
0.83074
0.739736
0.633382
0.510966
0.377914
0.237786
0.0944778
-0.0505996
-0.195189
-0.337122
-0.473666
-0.602705
-0.72208
-0.830626
-0.928021
-1.01426
-1.08964
-1.15504
-1.21107
-1.25791
-1.29661
-1.32691
-1.34991
-1.36597
-1.37594
-1.38006
-1.37959
-1.37511
-1.36772
-1.35797
-1.34665
-1.3338
-1.31928
-1.30277
-1.28347
-1.26159
-1.23658
-1.21017
-1.18236
-1.15535
-1.13189
0.713638
0.634797
0.542133
0.434467
0.317054
0.195803
0.0710452
-0.0550904
-0.181331
-0.30579
-0.426091
-0.540211
-0.645948
-0.74189
-0.827113
-0.901145
-0.96411
-1.01645
-1.05891
-1.09186
-1.11678
-1.13363
-1.14424
-1.14914
-1.14967
-1.14608
-1.1398
-1.13136
-1.12175
-1.11151
-1.10135
-1.09165
-1.08206
-1.0724
-1.06148
-1.0492
-1.03426
-1.01766
-0.999003
-0.979977
-0.963225
0.611549
0.545059
0.462016
0.366517
0.264238
0.157987
0.0507614
-0.0575352
-0.165643
-0.272469
-0.376366
-0.475533
-0.568345
-0.652892
-0.728485
-0.793662
-0.848583
-0.892553
-0.926682
-0.950474
-0.966111
-0.973296
-0.974722
-0.970854
-0.963714
-0.95373
-0.942637
-0.931169
-0.920271
-0.91076
-0.903041
-0.897889
-0.894669
-0.893669
-0.893276
-0.893456
-0.892215
-0.890059
-0.885783
-0.880531
-0.875834
0.524917
0.466922
0.392849
0.306941
0.214926
0.122219
0.029164
-0.0627881
-0.1536
-0.242751
-0.329395
-0.41265
-0.491163
-0.563892
-0.629523
-0.6873
-0.735998
-0.775699
-0.805561
-0.826241
-0.837775
-0.841424
-0.837976
-0.829535
-0.816786
-0.801666
-0.785219
-0.769024
-0.754125
-0.741457
-0.732157
-0.726305
-0.724623
-0.726101
-0.730704
-0.736511
-0.742947
-0.747898
-0.75116
-0.751092
-0.749183
0.451641
0.401667
0.333573
0.254667
0.171242
0.0870343
0.00522835
-0.0740155
-0.150263
-0.223473
-0.293394
-0.359949
-0.422639
-0.481216
-0.534859
-0.583244
-0.625231
-0.660719
-0.688606
-0.709167
-0.721819
-0.727374
-0.726097
-0.719568
-0.708102
-0.693471
-0.676551
-0.659028
-0.642028
-0.62684
-0.614762
-0.606358
-0.602548
-0.602822
-0.607206
-0.614126
-0.622675
-0.630719
-0.637152
-0.640006
-0.639257
0.392163
0.34758
0.284928
0.211379
0.13335
0.056359
-0.0181608
-0.0886683
-0.15497
-0.216783
-0.273912
-0.326491
-0.374436
-0.418115
-0.457413
-0.492674
-0.523391
-0.549876
-0.571265
-0.587741
-0.598599
-0.604268
-0.604483
-0.600233
-0.591333
-0.578958
-0.563527
-0.546433
-0.528593
-0.511248
-0.495741
-0.48287
-0.4738
-0.468462
-0.467314
-0.469188
-0.473492
-0.478217
-0.482187
-0.483177
-0.480766
0.344825
0.304779
0.245377
0.175738
0.102716
0.0307206
-0.0371228
-0.10068
-0.159316
-0.213115
-0.261898
-0.305856
-0.34485
-0.379147
-0.408561
-0.433557
-0.453851
-0.470076
-0.481779
-0.489649
-0.493135
-0.492991
-0.488913
-0.481854
-0.471332
-0.458397
-0.443022
-0.426325
-0.408759
-0.39146
-0.375404
-0.361454
-0.35067
-0.343265
-0.339811
-0.339594
-0.342325
-0.346432
-0.35101
-0.353969
-0.355035
0.309701
0.272072
0.214397
0.145886
0.0742982
0.00543983
-0.0588308
-0.116509
-0.167873
-0.21267
-0.251643
-0.285398
-0.314679
-0.340257
-0.362468
-0.381882
-0.398263
-0.412006
-0.422479
-0.430065
-0.434122
-0.435207
-0.432789
-0.427606
-0.419142
-0.408285
-0.394905
-0.380046
-0.364079
-0.348067
-0.332919
-0.319527
-0.308947
-0.30152
-0.298005
-0.297905
-0.301241
-0.306719
-0.31367
-0.320356
-0.32568
0.286948
0.250018
0.191137
0.120766
0.0469453
-0.0254646
-0.0925673
-0.153113
-0.205322
-0.249234
-0.284229
-0.311156
-0.330146
-0.342496
-0.348698
-0.350234
-0.347616
-0.342246
-0.334379
-0.325035
-0.31414
-0.30243
-0.289824
-0.276906
-0.263367
-0.249625
-0.235524
-0.221509
-0.207735
-0.194708
-0.182982
-0.173061
-0.165624
-0.16095
-0.159511
-0.161099
-0.165566
-0.172162
-0.180053
-0.188097
-0.194828
0.277058
0.237427
0.174692
0.101764
0.0267759
-0.0456353
-0.113433
-0.175561
-0.231837
-0.282023
-0.326429
-0.36504
-0.39832
-0.42627
-0.449384
-0.467629
-0.481498
-0.490967
-0.496631
-0.498608
-0.497606
-0.493818
-0.487747
-0.479541
-0.469774
-0.458824
-0.447092
-0.435054
-0.422976
-0.411476
-0.400666
-0.391236
-0.383101
-0.376848
-0.37217
-0.369392
-0.367945
-0.367739
-0.368054
-0.368549
-0.368177
89.6225
62.0973
46.501
44.0191
40.2079
33.5239
25.774
17.8275
10.3338
5.65829
3.96997
5.20197
6.83671
9.22815
10.6913
11.7769
12.1164
12.0325
11.7821
10.9525
10.0776
8.82813
7.688
6.50186
5.56375
4.60682
3.85248
3.01953
2.30853
1.70183
1.13842
0.742633
0.351954
0.20726
-0.023413
-0.0967794
-0.119186
-0.0345909
0.0570131
0.0225076
0.0883357
0.146108
0.12946
0.121204
0.0893394
0.0177443
-0.067464
-0.122437
-0.188832
-0.256086
-0.29218
-0.338469
-0.364278
-0.376833
-0.370435
-0.376985
-0.352519
-0.337751
-0.316944
-0.313274
-0.313619
-0.326075
-0.326727
-0.316282
-0.325271
-0.291117
-0.2933
-0.250922
-0.206175
-0.157556
-0.136761
-0.0698565
-0.0498089
0.0285506
86.9023
62.0551
46.5995
43.9423
40.1545
33.5703
25.959
18.1375
10.5384
5.49649
3.71867
4.92147
6.70504
9.10525
10.6188
11.7248
12.0839
12.0278
11.7477
10.9455
10.0364
8.80871
7.69042
6.52752
5.60215
4.65359
3.88776
3.05595
2.33358
1.71111
1.14413
0.731083
0.346855
0.195956
-0.0376834
-0.115532
-0.142471
-0.0543927
0.0302918
0.0110754
0.0700907
0.131002
0.115949
0.110282
0.0781495
0.00930208
-0.0719671
-0.129827
-0.194343
-0.259089
-0.294064
-0.33888
-0.364554
-0.377087
-0.371905
-0.377029
-0.353669
-0.339021
-0.318294
-0.314455
-0.314638
-0.327045
-0.327925
-0.317764
-0.326434
-0.293741
-0.293789
-0.251666
-0.206605
-0.158316
-0.1363
-0.0698636
-0.0499694
0.0282244
82.7978
61.6122
46.5288
43.8367
40.3124
33.8902
26.3457
18.5508
10.8082
5.40197
3.5707
4.72306
6.65319
9.02525
10.5868
11.698
12.0608
12.0256
11.6962
10.9196
9.97504
8.77713
7.67115
6.53533
5.61692
4.67964
3.90737
3.08027
2.35156
1.71648
1.15144
0.72048
0.34668
0.183551
-0.0486137
-0.12976
-0.160903
-0.0716728
0.00629071
0.00225352
0.0536432
0.117166
0.102976
0.100279
0.0665169
0.00147169
-0.0761851
-0.137407
-0.200292
-0.262698
-0.296416
-0.339504
-0.364954
-0.377344
-0.373298
-0.376712
-0.354701
-0.340215
-0.319741
-0.315678
-0.315713
-0.327916
-0.329065
-0.319486
-0.327241
-0.296353
-0.294012
-0.252219
-0.207027
-0.159099
-0.135668
-0.069834
-0.0501201
0.0277958
77.6153
60.4739
46.2768
43.6528
40.58
34.4369
26.9398
19.1155
11.2683
5.4897
3.51692
4.58508
6.63422
8.98501
10.5893
11.7003
12.0586
12.0254
11.6427
10.8809
9.90912
8.73656
7.63926
6.52723
5.61285
4.68706
3.91066
3.08883
2.35692
1.71236
1.15266
0.706074
0.343535
0.166011
-0.0614282
-0.145465
-0.179493
-0.089863
-0.0178244
-0.00589748
0.0382143
0.10435
0.0912721
0.0916838
0.056155
-0.00509627
-0.0795218
-0.143723
-0.205804
-0.2662
-0.298967
-0.340169
-0.365335
-0.37754
-0.374661
-0.376237
-0.355717
-0.341425
-0.321423
-0.317002
-0.316906
-0.328637
-0.330145
-0.321457
-0.327644
-0.298912
-0.2938
-0.252519
-0.207237
-0.15976
-0.134588
-0.0696587
-0.0502433
0.0272712
71.6119
58.5341
45.804
43.2765
40.7708
35.0839
27.7133
19.8356
11.941
5.82501
3.51748
4.4076
6.55198
8.91941
10.6003
11.7203
12.0831
12.0398
11.6044
10.8405
9.84577
8.69374
7.59392
6.50141
5.58426
4.67027
3.89224
3.07947
2.34787
1.69955
1.14568
0.689591
0.33773
0.145025
-0.0745786
-0.159031
-0.194589
-0.106837
-0.0393063
-0.01316
0.0251194
0.0924598
0.0806897
0.0834982
0.0461394
-0.0111797
-0.0830469
-0.149719
-0.211319
-0.270146
-0.302121
-0.341274
-0.365955
-0.377805
-0.375804
-0.375672
-0.356581
-0.342484
-0.323061
-0.318319
-0.318104
-0.329298
-0.331147
-0.323456
-0.327978
-0.301201
-0.293649
-0.252774
-0.207403
-0.16031
-0.133398
-0.0694055
-0.0502975
0.0267096
65.1463
55.7561
44.9151
42.4584
40.5275
35.52
28.5093
20.6936
12.8292
6.48754
3.68641
4.20213
6.33053
8.7588
10.5692
11.7406
12.1342
12.0751
11.5939
10.8096
9.79223
8.64564
7.53611
6.45469
5.52969
4.62755
3.84799
3.04818
2.32088
1.67493
1.12808
0.668354
0.32582
0.120579
-0.0888359
-0.173461
-0.209447
-0.124103
-0.0603874
-0.0207256
0.0135058
0.0812639
0.071541
0.0761115
0.0376261
-0.016624
-0.0862902
-0.15477
-0.216294
-0.274112
-0.305652
-0.342819
-0.366833
-0.378173
-0.376885
-0.37517
-0.357346
-0.343453
-0.324729
-0.319646
-0.319314
-0.329752
-0.331986
-0.325383
-0.328052
-0.303216
-0.293282
-0.252893
-0.207386
-0.160675
-0.131894
-0.0690336
-0.0503075
0.0260967
58.5529
52.1912
43.4199
40.9898
39.5224
35.3727
29.0533
21.5901
13.8857
7.43653
4.09808
4.02997
5.92736
8.38322
10.3839
11.696
12.1924
12.1498
11.6396
10.8211
9.77236
8.61337
7.4787
6.39298
5.45076
4.55434
3.77323
2.98894
2.27075
1.63301
1.09442
0.638849
0.305376
0.0904632
-0.106135
-0.188335
-0.222046
-0.141266
-0.0794739
-0.0285058
0.00436086
0.0709453
0.0636786
0.0689341
0.0296442
-0.0217651
-0.0900197
-0.159651
-0.221366
-0.278592
-0.310174
-0.345373
-0.368482
-0.379023
-0.377994
-0.374817
-0.358009
-0.344241
-0.326234
-0.320922
-0.320508
-0.330202
-0.332761
-0.327206
-0.328259
-0.305
-0.293106
-0.253086
-0.207402
-0.160946
-0.130376
-0.0685921
-0.0502214
0.0255052
52.0337
47.9474
41.1627
38.7276
37.5153
34.2905
28.9849
22.3129
15.0876
8.69843
4.84482
4.03285
5.43136
7.75413
9.91753
11.453
12.1604
12.218
11.7343
10.8939
9.80934
8.61633
7.43919
6.32833
5.35444
4.45376
3.66559
2.89694
2.19256
1.56911
1.04173
0.596867
0.273157
0.0552818
-0.126795
-0.205125
-0.234421
-0.158322
-0.0973487
-0.0369858
-0.00303512
0.0615164
0.057405
0.0625691
0.0232401
-0.0265419
-0.0935977
-0.164047
-0.226057
-0.283115
-0.315329
-0.348845
-0.371024
-0.380547
-0.379449
-0.374869
-0.358741
-0.345001
-0.327686
-0.322152
-0.32165
-0.330422
-0.333319
-0.328778
-0.32828
-0.306489
-0.292733
-0.253157
-0.207294
-0.16103
-0.128629
-0.0680351
-0.0500385
0.0249381
45.5666
43.0988
38.059
35.6695
34.5237
32.1577
28.0704
22.5803
16.2581
10.2432
6.02416
4.36543
4.96993
6.88657
9.07252
10.8537
11.882
12.1792
11.8352
11.0376
9.93909
8.70343
7.46188
6.2955
5.26422
4.33637
3.52793
2.76803
2.07755
1.47185
0.95973
0.532835
0.222412
0.00780415
-0.156289
-0.226623
-0.247437
-0.175832
-0.113387
-0.0456789
-0.0081079
0.0537296
0.0528132
0.0570501
0.0177307
-0.0307002
-0.0973701
-0.168244
-0.231009
-0.288277
-0.321722
-0.35391
-0.37509
-0.383373
-0.381671
-0.375592
-0.359746
-0.345793
-0.329033
-0.32332
-0.32275
-0.330665
-0.333816
-0.330182
-0.328507
-0.307866
-0.292577
-0.253349
-0.207296
-0.161067
-0.126935
-0.0674071
-0.0497171
0.0244735
38.9309
37.6326
34.0887
31.9213
30.7902
29.136
26.2873
22.1993
17.1245
11.8569
7.59295
5.20621
4.83628
5.99307
7.87808
9.76492
11.1396
11.8139
11.7753
11.1586
10.1346
8.89176
7.5899
6.34376
5.22643
4.23728
3.38352
2.61271
1.92856
1.33767
0.84313
0.438584
0.146089
-0.056398
-0.19823
-0.256219
-0.264052
-0.19412
-0.127449
-0.0542337
-0.0106664
0.0479039
0.0510463
0.0532398
0.0145589
-0.0340511
-0.100487
-0.171903
-0.235552
-0.29347
-0.32877
-0.360142
-0.380684
-0.387725
-0.385157
-0.377488
-0.36143
-0.346995
-0.330504
-0.324504
-0.323763
-0.330649
-0.334022
-0.33115
-0.328487
-0.308931
-0.292185
-0.253392
-0.207212
-0.16093
-0.125098
-0.0666739
-0.0492438
0.0241105
31.8899
31.5283
29.3193
27.6522
26.6735
25.5934
23.8526
21.1518
17.4633
13.2098
9.25007
6.42272
5.15779
5.37947
6.62819
8.3054
9.85552
10.9171
11.3159
11.0612
10.2742
9.13727
7.8348
6.51942
5.29899
4.21112
3.27521
2.45841
1.7564
1.16617
0.683932
0.302296
0.0313546
-0.151065
-0.265091
-0.302841
-0.291176
-0.216876
-0.141697
-0.0619157
-0.0104623
0.0459153
0.052754
0.0525946
0.0139962
-0.0353009
-0.10247
-0.174612
-0.239981
-0.299023
-0.336839
-0.368111
-0.388294
-0.394269
-0.390533
-0.381071
-0.364339
-0.348981
-0.332403
-0.325893
-0.324836
-0.330702
-0.334154
-0.33188
-0.328588
-0.309918
-0.29197
-0.253555
-0.207275
-0.160796
-0.123374
-0.0658919
-0.0486
0.0238959
24.4691
24.9378
23.9778
23.0907
22.4964
21.9356
21.0584
19.5265
17.1206
13.9622
10.5765
7.65546
5.75492
5.10565
5.57429
6.78245
8.23964
9.52305
10.3314
10.5306
10.1355
9.26674
8.09431
6.79105
5.50084
4.30826
3.26186
2.36089
1.60395
0.985701
0.496917
0.127137
-0.125543
-0.283866
-0.366191
-0.376489
-0.338235
-0.250466
-0.160503
-0.0705581
-0.00830232
0.0481861
0.0595059
0.0569889
0.0182954
-0.0331601
-0.101662
-0.175251
-0.242766
-0.303665
-0.344595
-0.376759
-0.39727
-0.402783
-0.398055
-0.386866
-0.369103
-0.35241
-0.335303
-0.32782
-0.326128
-0.330633
-0.334004
-0.33206
-0.328264
-0.310466
-0.291381
-0.253473
-0.207214
-0.1605
-0.121571
-0.0650487
-0.0477568
0.0237827
17.0665
18.2691
18.4444
18.4578
18.4443
18.3691
18.104
17.4047
16.0016
13.839
11.1666
8.4738
6.29676
5.01633
4.76414
5.38194
6.54045
7.84022
8.92239
9.54252
9.59774
9.11557
8.21054
7.04239
5.76918
4.51545
3.36605
2.36006
1.51479
0.833173
0.307933
-0.073281
-0.321221
-0.461159
-0.512832
-0.490956
-0.418935
-0.307383
-0.193452
-0.0859332
-0.00734062
0.0541518
0.0717611
0.0681794
0.0291649
-0.0250425
-0.0961559
-0.172241
-0.243223
-0.306893
-0.351818
-0.385945
-0.407509
-0.413321
-0.407967
-0.395237
-0.376288
-0.357936
-0.339856
-0.330943
-0.328151
-0.33108
-0.333999
-0.332091
-0.327942
-0.310866
-0.290842
-0.253418
-0.207237
-0.160207
-0.119906
-0.0641984
-0.0467257
0.0237598
10.255
12.0257
13.091
13.9052
14.4871
14.8376
14.9786
14.7797
14.0535
12.6772
10.7297
8.50385
6.41012
4.85883
4.10139
4.18371
4.94566
6.0884
7.27134
8.1953
8.66485
8.6084
8.06436
7.14342
5.99713
4.76282
3.5587
2.46148
1.51772
0.748413
0.157112
-0.264659
-0.531257
-0.668807
-0.700552
-0.649698
-0.542324
-0.399282
-0.25275
-0.118683
-0.0159142
0.0580759
0.0868537
0.0854813
0.0477551
-0.00939854
-0.0835702
-0.16317
-0.238536
-0.306079
-0.356001
-0.393307
-0.417054
-0.424343
-0.419302
-0.405809
-0.385949
-0.365955
-0.346649
-0.335796
-0.331368
-0.33214
-0.334156
-0.33179
-0.327217
-0.310711
-0.289761
-0.252936
-0.206995
-0.159667
-0.118172
-0.0633109
-0.0454501
0.0237263
4.43663
6.52097
8.11656
9.44759
10.444
11.1119
11.4949
11.5787
11.2678
10.4686
9.18263
7.54868
5.83678
4.3711
3.42943
3.16642
3.56541
4.45852
5.58248
6.64635
7.41451
7.74154
7.58139
6.98887
6.06741
4.95187
3.7706
2.63065
1.60758
0.747958
0.0729989
-0.414288
-0.725702
-0.883968
-0.915183
-0.847031
-0.710618
-0.533995
-0.350167
-0.180741
-0.0456158
0.051018
0.0977827
0.105032
0.0719765
0.0140605
-0.062888
-0.146564
-0.227405
-0.300024
-0.356035
-0.397862
-0.424915
-0.434867
-0.431214
-0.417888
-0.397743
-0.376508
-0.356018
-0.34306
-0.336527
-0.334804
-0.335293
-0.331961
-0.326731
-0.310491
-0.288682
-0.252367
-0.206703
-0.159044
-0.116515
-0.0624102
-0.0439505
0.0236399
-0.382798
1.72366
3.47638
4.97574
6.14501
6.97421
7.50498
7.76974
7.74506
7.387
6.67967
5.6746
4.51663
3.41622
2.59887
2.24155
2.41226
3.06167
4.02137
5.07023
5.98346
6.57925
6.76058
6.50811
5.87672
4.96529
3.89721
2.78784
1.73824
0.815823
0.0643067
-0.497268
-0.870619
-1.07157
-1.12433
-1.05823
-0.907144
-0.704682
-0.486171
-0.279175
-0.106544
0.020923
0.0936185
0.117355
0.095051
0.0407278
-0.0361886
-0.122717
-0.208549
-0.286705
-0.349366
-0.39677
-0.428297
-0.442151
-0.441285
-0.429499
-0.410161
-0.388631
-0.367417
-0.352552
-0.343659
-0.33916
-0.337455
-0.332637
-0.32624
-0.310003
-0.287132
-0.251387
-0.206037
-0.158075
-0.114712
-0.0614488
-0.0421398
0.0233913
-4.42671
-2.55368
-0.936063
0.470977
1.61757
2.49312
3.1265
3.55429
3.78399
3.80437
3.60379
3.19167
2.63235
2.03476
1.54727
1.31064
1.4223
1.89874
2.67001
3.59834
4.5093
5.23624
5.6534
5.69581
5.36106
4.70911
3.82835
2.8361
1.83162
0.90127
0.107119
-0.514575
-0.950096
-1.20524
-1.29701
-1.25288
-1.10563
-0.892207
-0.649202
-0.409973
-0.200557
-0.0386026
0.0655927
0.113005
0.108133
0.0635318
-0.00892304
-0.0953868
-0.184507
-0.267538
-0.336683
-0.390157
-0.426896
-0.445518
-0.448471
-0.439386
-0.421983
-0.401271
-0.380181
-0.36402
-0.352971
-0.345729
-0.341455
-0.334661
-0.326671
-0.309922
-0.285899
-0.250468
-0.205344
-0.157039
-0.112939
-0.0604527
-0.0400936
0.0229728
-7.76059
-6.24113
-4.88223
-3.66485
-2.61054
-1.7266
-0.99694
-0.401276
0.0693524
0.410623
0.614941
0.676506
0.619656
0.491168
0.376168
0.364611
0.540391
0.946101
1.56972
2.34464
3.15975
3.88772
4.41201
4.64653
4.55857
4.15772
3.50828
2.69395
1.80713
0.936352
0.153209
-0.490642
-0.967869
-1.27037
-1.40634
-1.39611