/*--------------------------------*- C++ -*----------------------------------*\
  =========                 |
  \\      /  F ield         | OpenFOAM: The Open Source CFD Toolbox
   \\    /   O peration     | Website:  https://openfoam.org
    \\  /    A nd           | Version:  11
     \\/     M anipulation  |
\*---------------------------------------------------------------------------*/
FoamFile
{
    format      ascii;
    class       surfaceScalarField;
    location    "50";
    object      phi;
}
// * * * * * * * * * * * * * * * * * * * * * * * * * * * * * * * * * * * * * //

dimensions      [0 3 -1 0 0 0 0];

internalField   nonuniform List<scalar> 
21876
(
0.00518545
-0.00520954
2.53501e-05
0.0107679
-0.00558174
0.0164373
-0.00566886
0.0214049
-0.00496712
0.0264958
-0.00509056
0.030637
-0.00414081
0.032835
-0.00219786
0.0314915
0.00134369
0.030844
0.000647235
0.0313041
-0.000459944
0.0326354
-0.00133183
0.0362839
-0.00364843
0.0400396
-0.00375643
0.0424149
-0.00237531
0.0396545
0.00275965
0.0322094
0.00744381
0.0211559
0.0110527
0.0170136
0.00414125
0.0169107
0.000102979
0.0174366
-0.000523966
0.017979
-0.000537607
0.0183302
-0.000349644
0.0185548
-0.000218163
0.0187815
-0.000223294
0.0190654
-0.000279021
0.0187469
0.000321455
0.0179375
0.000809157
0.0176918
0.000249444
0.0174653
0.000229016
0.0172679
0.00020323
0.0170642
0.000208346
0.0168277
0.000243902
0.0165421
0.000289511
0.0162051
0.000347086
0.0158037
0.000405343
0.0153365
0.000476591
0.0147729
0.000564909
0.014075
0.00070321
0.0131748
0.00089479
0.0117069
0.00146651
0.00247937
0.00921978
0.00599712
-0.0112387
3.29161e-05
0.0123476
-0.0119314
0.0187476
-0.0120682
0.0245672
-0.010786
0.0302242
-0.0107469
0.0348503
-0.00876611
0.037898
-0.00524483
0.0384444
0.000798067
0.0389217
0.000171129
0.0399966
-0.00153343
0.0417354
-0.00306925
0.0453114
-0.00722262
0.0488544
-0.00729796
0.0512873
-0.00480574
0.0508215
0.00322822
0.0472473
0.0110205
0.0389286
0.0193741
0.0329451
0.0101279
0.0295883
0.00346425
0.0276773
0.00139196
0.0267876
0.000359351
0.0264367
7.10118e-06
0.0262907
-6.1964e-05
0.0262834
-0.000206697
0.0264146
-0.000398907
0.0261781
0.000567669
0.0254778
0.00151439
0.0250665
0.000667502
0.024673
0.00062456
0.0243243
0.000556366
0.0240029
0.000533794
0.0236825
0.000570289
0.0233427
0.000632885
0.0229727
0.000724672
0.0225492
0.000826058
0.0220578
0.000969052
0.0214714
0.001145
0.020741
0.00143011
0.0198862
0.0017445
0.018606
0.00274472
0.00512683
0.0159481
0.00700368
-0.0182824
4.05262e-05
0.0142991
-0.0192266
0.0216066
-0.0193753
0.0283465
-0.0175257
0.0347426
-0.0171428
0.0401968
-0.0142202
0.044123
-0.00917095
0.045687
-0.000765877
0.0468154
-0.000957349
0.0483764
-0.00309469
0.0505828
-0.00527609
0.0543307
-0.0109709
0.0581852
-0.0111531
0.0607921
-0.00741345
0.0602166
0.00380251
0.0573528
0.0138828
0.0510573
0.0256683
0.0457916
0.0153916
0.042144
0.00711055
0.0393668
0.00416797
0.0375416
0.00218407
0.0365109
0.00103614
0.0358974
0.00055077
0.0355662
0.000122665
0.0354362
-0.000270791
0.034958
0.00104464
0.0340807
0.00238919
0.0335436
0.00120469
0.0330562
0.00111184
0.0326045
0.00101007
0.0321752
0.000963073
0.0317458
0.00100154
0.0312982
0.00107831
0.0308211
0.00120385
0.0302877
0.00135838
0.0296759
0.00158519
0.0289528
0.00186853
0.0280698
0.00231816
0.0270221
0.00278985
0.025632
0.00413601
0.00769098
0.0230659
0.00822306
-0.0265548
4.98293e-05
0.0166535
-0.0276566
0.0249996
-0.027721
0.0327377
-0.0252634
0.039997
-0.0244016
0.0463228
-0.0205455
0.0512195
-0.0140671
0.0538313
-0.00337718
0.0556533
-0.00277845
0.0577447
-0.00518521
0.0605361
-0.00806636
0.0646061
-0.0150397
0.0687702
-0.0153161
0.0717872
-0.0104289
0.0714962
0.00409553
0.0684039
0.0169772
0.0622566
0.0318176
0.0571256
0.0205253
0.0539764
0.0102636
0.0515018
0.00664711
0.0495561
0.00413554
0.0482409
0.00235709
0.0473209
0.00147861
0.0467056
0.000746191
0.0463336
0.000110597
0.04566
0.00172669
0.0445898
0.0034654
0.0438668
0.00193341
0.0432594
0.00172289
0.0426992
0.00157446
0.0421676
0.00149946
0.04164
0.00153464
0.041094
0.00162936
0.0405146
0.00178774
0.039873
0.00200025
0.0391432
0.00231468
0.0382887
0.00272052
0.0372627
0.00334298
0.0360419
0.00400979
0.0345089
0.00566907
0.0102621
0.031932
0.00967514
-0.0362906
6.13384e-05
0.0194293
-0.0374103
0.0289623
-0.0372536
0.0378109
-0.0341116
0.0460698
-0.03266
0.0533875
-0.0278628
0.0593881
-0.0200673
0.0632819
-0.00727057
0.0662008
-0.00569698
0.0689888
-0.0079729
0.0723633
-0.0114408
0.0767078
-0.0193842
0.0810869
-0.0196953
0.0844639
-0.0138062
0.0847345
0.00382406
0.0817682
0.0199425
0.0753985
0.0381865
0.0695702
0.0263526
0.0662098
0.0136229
0.063971
0.00888459
0.0622456
0.00585929
0.0610741
0.00352656
0.060225
0.0023256
0.0595961
0.00137269
0.0591621
0.000542265
0.0584455
0.00244127
0.0573027
0.00460666
0.056451
0.00278406
0.0557532
0.00242075
0.0551088
0.00221925
0.0544985
0.00210971
0.0538964
0.00213637
0.0532728
0.00225141
0.0526085
0.00245049
0.0518768
0.00273114
0.0510519
0.00313986
0.050096
0.00367703
0.0489637
0.004477
0.0476149
0.005358
0.0460045
0.00727958
0.0128312
0.0434337
0.011399
-0.0477641
7.52435e-05
0.0227036
-0.0487143
0.0336092
-0.0481586
0.0437115
-0.0442135
0.0531114
-0.0420595
0.0615475
-0.0362985
0.0687698
-0.0272891
0.0740757
-0.0125761
0.0783831
-0.0100037
0.0820876
-0.0116769
0.0861547
-0.0155072
0.0908364
-0.0240653
0.0954236
-0.024282
0.099149
-0.0175308
0.100174
0.00280083
0.0978785
0.022239
0.0917456
0.0443212
0.0850552
0.0330454
0.0807732
0.0179085
0.0781729
0.0114893
0.0763526
0.00768512
0.0752319
0.00465292
0.0745203
0.00304351
0.074029
0.00187089
0.0737029
0.000875416
0.0731374
0.00301333
0.0721222
0.00562722
0.0712838
0.00362733
0.0706035
0.003105
0.0699704
0.00285654
0.0693621
0.00272219
0.0687567
0.00274648
0.068121
0.00289135
0.0674337
0.00314149
0.0666734
0.00349341
0.0658192
0.00399504
0.0648347
0.00466152
0.0636781
0.00563317
0.0622942
0.00674141
0.0607195
0.00885332
0.0152742
0.0582731
0.0134524
-0.0613076
9.16488e-05
0.026588
-0.0618493
0.0391006
-0.0606705
0.050643
-0.0557552
0.0613497
-0.0527656
0.0710461
-0.0459941
0.0795991
-0.0358414
0.0863951
-0.0193713
0.092311
-0.0159188
0.0971951
-0.0165602
0.10212
-0.0204315
0.107245
-0.0291897
0.112076
-0.0291132
0.116162
-0.0216155
0.118029
0.000933226
0.116803
0.0234654
0.11155
0.0495744
0.10444
0.0401569
0.0990723
0.023276
0.0957128
0.0148488
0.0934267
0.00997041
0.0920435
0.00603546
0.0912393
0.00384681
0.0907553
0.00235401
0.0904719
0.001158
0.0900491
0.00343534
0.0892249
0.00645122
0.0884778
0.00437446
0.0878912
0.00369256
0.0873574
0.00339131
0.0868395
0.00324121
0.086319
0.00326752
0.0857636
0.00344694
0.0851494
0.00375513
0.0844593
0.00418355
0.0836785
0.0047757
0.0827767
0.00556375
0.0817228
0.00668717
0.0804535
0.00801016
0.0790851
0.0102207
0.0173907
0.0769665
0.0159104
-0.0773276
0.000110534
0.0312281
-0.0771663
0.0456454
-0.0750871
0.0588713
-0.0689804
0.0710885
-0.0649821
0.0822071
-0.057112
0.0922029
-0.0458366
0.100544
-0.0277114
0.108195
-0.0235701
0.114495
-0.0228598
0.120463
-0.0263996
0.126179
-0.0349047
0.131351
-0.0342848
0.135841
-0.0261055
0.138596
-0.00182148
0.138677
0.0233855
0.134897
0.0533555
0.128114
0.0469417
0.121932
0.0294604
0.117693
0.0190901
0.114755
0.0129125
0.112896
0.00789766
0.111776
0.00497021
0.111111
0.00302228
0.110715
0.00155748
0.11029
0.00386379
0.10956
0.00718423
0.108848
0.00508964
0.108302
0.00424149
0.107841
0.00385412
0.107413
0.00367223
0.106995
0.003687
0.106558
0.00388556
0.106073
0.00424166
0.10552
0.00473728
0.10489
0.00540676
0.104162
0.00629286
0.103325
0.00752363
0.102323
0.0090119
0.101339
0.0112045
0.0189443
0.0997841
0.0188676
-0.0963263
0.000131397
0.0368068
-0.0951052
0.0535065
-0.0917862
0.0687312
-0.0842049
0.0827157
-0.0789661
0.0954531
-0.0698492
0.107019
-0.0574018
0.116956
-0.0376484
0.12638
-0.032995
0.134263
-0.0307415
0.141461
-0.0335976
0.147951
-0.0413937
0.153616
-0.0399491
0.158608
-0.0310963
0.162292
-0.00550449
0.163811
0.0218676
0.161958
0.0552106
0.156337
0.0525645
0.149928
0.0358712
0.144928
0.0240906
0.141306
0.0165358
0.138896
0.0103086
0.13734
0.00652805
0.136365
0.00399788
0.135742
0.00218164
0.135194
0.00441284
0.134456
0.00792361
0.133708
0.00583886
0.133115
0.00483652
0.132643
0.00432794
0.132232
0.00408477
0.131859
0.00406178
0.131497
0.00424859
0.131116
0.00462354
0.130691
0.00516304
0.130211
0.00588677
0.129668
0.0068369
0.129077
0.00811465
0.128406
0.00968254
0.127875
0.0117355
0.0197973
0.127022
0.0224401
-0.11892
0.000154163
0.0435484
-0.116213
0.0630049
-0.111243
0.0806309
-0.101831
0.0967087
-0.0950438
0.111312
-0.0844525
0.124607
-0.0706962
0.136214
-0.0492558
0.147396
-0.0441759
0.156941
-0.0402867
0.165522
-0.0421776
0.172984
-0.0488546
0.179338
-0.0463033
0.184984
-0.0367408
0.189647
-0.010167
0.192655
0.0188604
0.19299
0.054876
0.189305
0.0562491
0.183513
0.0416644
0.178157
0.0294467
0.17397
0.0207243
0.171035
0.0132437
0.169009
0.00855533
0.167658
0.00534921
0.166747
0.0030939
0.166015
0.00514558
0.165217
0.00872303
0.164416
0.00664002
0.163746
0.00550582
0.163216
0.00485898
0.162775
0.00452436
0.162396
0.00444146
0.162058
0.00458517
0.161734
0.00494818
0.161397
0.00549836
0.161037
0.00624792
0.160652
0.00722158
0.160279
0.00848892
0.159921
0.0100402
0.159787
0.011871
0.019996
0.15959
0.0267684
-0.145866
0.000178438
0.0517218
-0.141166
0.0745263
-0.134046
0.0950582
-0.122362
0.113642
-0.113627
0.13043
-0.10124
0.145669
-0.0859344
0.159071
-0.0626572
0.171994
-0.0570993
0.183222
-0.0515138
0.19328
-0.052235
0.201895
-0.0574701
0.20915
-0.0535581
0.21563
-0.0432209
0.221339
-0.0158759
0.225828
0.0143706
0.228403
0.0523003
0.22722
0.0574329
0.223
0.0458853
0.218019
0.0344292
0.213619
0.0251257
0.210316
0.0165482
0.207884
0.0109885
0.20616
0.00707431
0.204945
0.00431066
0.204011
0.00608207
0.203137
0.00959785
0.202301
0.00747437
0.201582
0.0062254
0.201005
0.0054324
0.200542
0.00498865
0.200158
0.00482073
0.199841
0.00490345
0.199566
0.00521833
0.199319
0.00574819
0.199083
0.00647999
0.198871
0.00743679
0.19872
0.00863839
0.198669
0.0100938
0.198877
0.0116652
0.019678
0.199197
0.0320207
-0.178088
0.000204082
0.0616489
-0.170792
0.0885294
-0.160926
0.112594
-0.146425
0.134204
-0.135236
0.153587
-0.120622
0.171068
-0.103414
0.186465
-0.0780537
0.201175
-0.071808
0.214096
-0.0644343
0.225682
-0.0638216
0.235596
-0.0673837
0.243945
-0.061908
0.251437
-0.0507143
0.258272
-0.0227119
0.264208
0.00843303
0.268902
0.047607
0.270455
0.05588
0.268626
0.047715
0.264971
0.0380843
0.261021
0.0290757
0.257719
0.0198505
0.2551
0.0136079
0.253119
0.00905547
0.251659
0.00577177
0.250554
0.00718612
0.249622
0.0105305
0.24879
0.00830549
0.248078
0.00693583
0.247509
0.00599988
0.247067
0.00542751
0.246729
0.00515858
0.246476
0.0051523
0.246303
0.0053924
0.246194
0.00585477
0.246149
0.00652616
0.246175
0.0074099
0.246314
0.00850098
0.246612
0.00979791
0.24718
0.011098
0.0189268
0.247936
0.0383997
-0.216715
0.000229737
0.0737153
-0.206106
0.105564
-0.192772
0.133932
-0.174792
0.159217
-0.16052
0.181724
-0.143128
0.201854
-0.123543
0.219549
-0.095748
0.236191
-0.0884487
0.250874
-0.0791167
0.264042
-0.0769891
0.275368
-0.0787099
0.284975
-0.0715154
0.293635
-0.0593746
0.301673
-0.0307515
0.309019
0.00108738
0.315622
0.0410026
0.319823
0.0516792
0.320842
0.0466946
0.319416
0.039509
0.316806
0.0316832
0.314132
0.0225225
0.311758
0.0159796
0.309813
0.010999
0.308297
0.00728428
0.307149
0.00833429
0.30624
0.0114364
0.305482
0.0090635
0.30486
0.00755581
0.304386
0.00647552
0.304049
0.0057617
0.303839
0.0053702
0.30374
0.00524828
0.303755
0.00537931
0.303878
0.0057302
0.304117
0.00628946
0.304478
0.00704676
0.305
0.00798208
0.305717
0.00907957
0.306712
0.0101054
0.0177284
0.307909
0.0461524
-0.263118
0.000254006
0.0883892
-0.248341
0.126296
-0.230677
0.159914
-0.208409
0.18968
-0.190284
0.215981
-0.169427
0.2393
-0.146861
0.259721
-0.116168
0.278576
-0.107302
0.295198
-0.0957372
0.310061
-0.0918514
0.322922
-0.0915702
0.333934
-0.0825264
0.343891
-0.0693312
0.3532
-0.0400612
0.361931
-0.00764378
0.370233
0.0327005
0.376796
0.0451152
0.380705
0.0427829
0.382079
0.0381333
0.381672
0.032086
0.380414
0.0237783
0.378924
0.0174662
0.377509
0.0124101
0.37631
0.00848138
0.375387
0.0092533
0.3747
0.0121259
0.374162
0.00959923
0.37377
0.0079525
0.373518
0.00672419
0.373421
0.00586547
0.373459
0.00532765
0.373646
0.00506826
0.373967
0.00505357
0.374445
0.00525897
0.375072
0.00565819
0.375876
0.0062471
0.376869
0.00698668
0.378089
0.00786024
0.379585
0.00861054
0.0160151
0.381294
0.0555838
-0.318974
0.000274899
0.106247
-0.299002
0.151543
-0.275971
0.191574
-0.248438
0.226816
-0.225524
0.257753
-0.200363
0.284961
-0.174068
0.308682
-0.139888
0.330186
-0.128804
0.349063
-0.114614
0.365845
-0.108632
0.380421
-0.106145
0.393003
-0.0951077
0.404391
-0.0807185
0.415052
-0.0507213
0.425165
-0.0177568
0.435008
0.0228585
0.443613
0.0365093
0.45017
0.0362247
0.454487
0.0338149
0.456851
0.0297207
0.457731
0.0228975
0.457838
0.017358
0.457591
0.0126565
0.457243
0.00882737
0.456983
0.00951476
0.456854
0.012255
0.456812
0.00964485
0.456874
0.00789074
0.457064
0.00653865
0.457391
0.00553899
0.45787
0.00485327
0.458501
0.00443676
0.459298
0.00425999
0.460266
0.00429048
0.461422
0.00450498
0.462776
0.0048928
0.464349
0.00541439
0.466161
0.0060478
0.468245
0.00652543
0.013698
0.470564
0.0670675
-0.386329
0.000291099
0.127998
-0.359931
0.182315
-0.330286
0.230183
-0.296305
0.272134
-0.267473
0.30876
-0.236988
0.340746
-0.206052
0.368512
-0.167653
0.393271
-0.153562
0.414882
-0.136225
0.433949
-0.127698
0.450521
-0.122717
0.464905
-0.10949
0.477901
-0.0937141
0.490035
-0.0628539
0.501573
-0.0292942
0.512884
0.0115485
0.523285
0.0261092
0.532162
0.0273491
0.539255
0.0267228
0.544567
0.0244104
0.548042
0.0194247
0.550336
0.0150652
0.551881
0.0111141
0.552986
0.00772383
0.553928
0.00857522
0.554832
0.0113524
0.555688
0.00879249
0.556561
0.00701932
0.557502
0.00560135
0.558541
0.00450022
0.559712
0.00368705
0.561025
0.00312361
0.562505
0.0027837
0.56416
0.00263534
0.566014
0.00265527
0.568074
0.00283275
0.570363
0.00312789
0.572892
0.00352011
0.57568
0.00373745
0.0106661
0.578716
0.0810567
-0.467687
0.000303861
0.154506
-0.433379
0.219845
-0.395623
0.277306
-0.353765
0.327487
-0.317653
0.37111
-0.280611
0.408992
-0.243932
0.441751
-0.200412
0.470564
-0.182375
0.495567
-0.161227
0.517447
-0.149577
0.536432
-0.141702
0.552951
-0.126008
0.567817
-0.10858
0.581623
-0.0766584
0.594714
-0.042384
0.607527
-0.00126386
0.619601
0.0140365
0.630526
0.0164264
0.640108
0.0171424
0.648252
0.0162693
0.65446
0.0132185
0.659279
0.0102488
0.663075
0.00732109
0.666154
0.00464724
0.668832
0.00589979
0.671286
0.00890037
0.673526
0.00655588
0.675657
0.00488913
0.677761
0.00350096
0.67989
0.00237122
0.682097
0.00148462
0.684407
0.000813167
0.686858
0.000337445
0.689464
2.97727e-05
0.692254
-0.000130207
0.695239
-0.000150534
0.698439
-6.81097e-05
0.701862
0.000100464
0.705517
8.4468e-05
0.00677136
0.709417
0.0888451
-0.55682
0.00029062
0.169229
-0.513761
0.24063
-0.467023
0.303328
-0.416462
0.357947
-0.372271
0.40528
-0.327943
0.44621
-0.284862
0.481502
-0.235703
0.512222
-0.213094
0.538742
-0.187747
0.561782
-0.172616
0.581716
-0.161636
0.599063
-0.143354
0.614597
-0.124112
0.628932
-0.0909925
0.642455
-0.0559063
0.655619
-0.0144258
0.668137
0.00151989
0.679791
0.00477388
0.690507
0.00642775
0.700219
0.00655931
0.708209
0.00523081
0.714891
0.0035684
0.720526
0.00168823
0.725356
-0.000181612
0.72967
0.00158746
0.733646
0.00492567
0.737294
0.00291054
0.740729
0.00145507
0.744041
0.000190596
0.747298
-0.000884632
0.750557
-0.00177179
0.753858
-0.00248773
0.757242
-0.00304336
0.760732
-0.00345976
0.764357
-0.00375188
0.768131
-0.00392297
0.77207
-0.00400508
0.776183
-0.00400976
0.780472
-0.00420372
0.00227503
0.784972
0.0954924
-0.652586
0.000275254
0.181792
-0.60006
0.258374
-0.543604
0.325551
-0.483639
0.383972
-0.430691
0.43449
-0.378461
0.478046
-0.328418
0.51552
-0.273177
0.547901
-0.245474
0.575742
-0.215587
0.599787
-0.19666
0.620523
-0.182372
0.638545
-0.161376
0.654596
-0.140162
0.669312
-0.105708
0.683113
-0.0697064
0.696462
-0.0277732
0.70919
-0.0112069
0.721202
-0.00723731
0.73252
-0.00488922
0.74314
-0.00405995
0.752266
-0.00389336
0.760236
-0.00440044
0.767233
-0.00530813
0.773442
-0.00638943
0.779106
-0.00407596
0.784387
-0.000354827
0.789286
-0.00198727
0.793912
-0.00316996
0.79835
-0.00424721
0.802672
-0.00520555
0.806935
-0.00603368
0.811186
-0.00673736
0.815463
-0.00731898
0.819797
-0.0077918
0.824211
-0.00816463
0.828726
-0.0084349
0.833352
-0.00862959
0.838101
-0.00875518
0.842972
-0.00907358
-0.00276702
0.848017
0.102776
-0.755622
0.000262034
0.195576
-0.692859
0.277872
-0.625899
0.350011
-0.555777
0.412673
-0.493352
0.466776
-0.432564
0.513328
-0.374969
0.553314
-0.313162
0.587687
-0.279846
0.617149
-0.245048
0.642478
-0.221989
0.664255
-0.204147
0.683146
-0.180266
0.699883
-0.156898
0.715138
-0.120961
0.729359
-0.0839269
0.743026
-0.0414387
0.756046
-0.0242261
0.768409
-0.0195992
0.780208
-0.0166874
0.7915
-0.0153511
0.80146
-0.0138528
0.810398
-0.0133379
0.818453
-0.0133631
0.825769
-0.0137049
0.832552
-0.0108586
0.838946
-0.00674719
0.84494
-0.00798179
0.850636
-0.00886444
0.856108
-0.00971946
0.861426
-0.0105219
0.866642
-0.0112496
0.871805
-0.0118987
0.876948
-0.0124632
0.882108
-0.0129489
0.8873
-0.0133581
0.892551
-0.0136828
0.897865
-0.0139452
0.90326
-0.0141471
0.908731
-0.0145455
-0.00838237
0.914349
0.110737
-0.866606
0.000250665
0.210657
-0.792776
0.299226
-0.714467
0.376826
-0.633376
0.444177
-0.560702
0.502267
-0.490653
0.552175
-0.424876
0.594994
-0.355979
0.631665
-0.316517
0.663022
-0.276405
0.689884
-0.24885
0.712917
-0.227179
0.732856
-0.200205
0.750444
-0.174484
0.766386
-0.136904
0.781171
-0.0987101
0.795295
-0.0555625
0.808718
-0.0376476
0.821485
-0.0323672
0.83375
-0.0289506
0.845616
-0.027218
0.856252
-0.0244872
0.865959
-0.0230461
0.874862
-0.0222651
0.883078
-0.0219206
0.890787
-0.018569
0.89812
-0.0140784
0.905056
-0.0149199
0.911689
-0.0154958
0.918082
-0.0161144
0.924302
-0.0167395
0.930391
-0.0173416
0.936402
-0.0179065
0.942357
-0.0184224
0.948298
-0.0188867
0.954233
-0.0192977
0.960194
-0.019641
0.966181
-0.0199354
0.972213
-0.0201785
0.978289
-0.0206223
-0.0145821
0.984487
0.119425
-0.986266
0.00023944
0.227126
-0.900475
0.322565
-0.809904
0.406156
-0.716965
0.478665
-0.63321
0.541157
-0.553144
0.59479
-0.478508
0.640763
-0.401951
0.68003
-0.355783
0.713545
-0.309919
0.742178
-0.277482
0.766671
-0.251672
0.787835
-0.221368
0.806428
-0.193077
0.823206
-0.153681
0.838688
-0.114192
0.853402
-0.070276
0.867339
-0.0515844
0.880591
-0.0456192
0.893351
-0.0417112
0.905771
-0.0396375
0.917005
-0.0357222
0.927371
-0.033412
0.936983
-0.0318776
0.945951
-0.0308898
0.954443
-0.0270606
0.962572
-0.0222085
0.970322
-0.0226694
0.977767
-0.0229428
0.984975
-0.0233208
0.991992
-0.0237593
0.998872
-0.02422
1.00565
-0.0246825
1.01235
-0.025127
1.01901
-0.0255465
1.02565
-0.0259327
1.03227
-0.0262686
1.03891
-0.0265677
1.04556
-0.0268253
1.05222
-0.0272874
-0.0213548
1.059
0.128899
-1.11539
0.000228118
0.245097
-1.01667
0.348045
-0.91285
0.438193
-0.807111
0.51636
-0.711375
0.583692
-0.620474
0.641435
-0.53625
0.690896
-0.451411
0.73306
-0.397945
0.768996
-0.345854
0.799631
-0.308115
0.825785
-0.277826
0.848344
-0.243925
0.868094
-0.212826
0.885844
-0.17143
0.902151
-0.1305
0.917575
-0.0856987
0.932131
-0.0661406
0.945948
-0.0594354
0.959254
-0.0550187
0.972239
-0.0526224
0.98405
-0.0475331
0.995017
-0.0443795
1.00526
-0.0421208
1.01489
-0.040517
1.02406
-0.0362306
1.03288
-0.0310323
1.04133
-0.0311252
1.04949
-0.0311028
1.05741
-0.0312412
1.06514
-0.0314895
1.07272
-0.0318011
1.08018
-0.0321499
1.08757
-0.0325096
1.09489
-0.0328684
1.10217
-0.0332135
1.10942
-0.0335237
1.11666
-0.0338095
1.1239
-0.0340627
1.13113
-0.0345242
-0.0286895
1.13847
0.139229
-1.25483
0.000217555
0.264696
-1.14213
0.375844
-1.02399
0.473161
-0.904425
0.557522
-0.795734
0.630163
-0.693113
0.692424
-0.598508
0.745727
-0.504712
0.791099
-0.443315
0.829726
-0.384479
0.862597
-0.340985
0.890615
-0.305842
0.914738
-0.268047
0.935795
-0.233882
0.95465
-0.190283
0.971902
-0.147751
0.988146
-0.101942
1.00342
-0.081413
1.01788
-0.0738941
1.03179
-0.068928
1.04537
-0.0662006
1.05775
-0.059921
1.0693
-0.0559247
1.08013
-0.0529498
1.09035
-0.0507411
1.10013
-0.0460079
1.10957
-0.0404718
1.11865
-0.040205
1.12744
-0.0398914
1.13599
-0.0397926
1.14435
-0.0398491
1.15255
-0.0400084
1.16064
-0.040237
1.16864
-0.0405041
1.17656
-0.0407923
1.18443
-0.0410849
1.19227
-0.0413572
1.20008
-0.0416162
1.20787
-0.0418513
1.21564
-0.0422972
-0.0365537
1.22351
0.150488
-1.40552
0.000206462
0.286067
-1.27771
0.406166
-1.14409
0.511313
-1.00957
0.60245
-0.886867
0.680905
-0.771566
0.748123
-0.665724
0.805647
-0.562233
0.854556
-0.492222
0.896156
-0.426076
0.931507
-0.376334
0.961594
-0.335927
0.987456
-0.293907
1.00997
-0.256392
1.03006
-0.210371
1.04837
-0.166063
1.06554
-0.11911
1.08162
-0.0974936
1.0968
-0.0890695
1.11137
-0.0834945
1.12557
-0.0804058
1.13855
-0.0728992
1.15067
-0.0680417
1.16206
-0.0643413
1.17284
-0.0615244
1.18318
-0.0563447
1.19318
-0.0504731
1.20282
-0.0498488
1.21218
-0.049246
1.2213
-0.0489106
1.23022
-0.048775
1.23899
-0.0487796
1.24764
-0.0488848
1.25619
-0.0490541
1.26467
-0.0492655
1.27308
-0.049498
1.28145
-0.049724
1.28978
-0.0499469
1.29808
-0.0501537
1.30636
-0.0505734
-0.0449169
1.31472
0.162768
-1.56848
0.0001975
0.309373
-1.42431
0.43924
-1.27395
0.552938
-1.12326
0.651479
-0.985405
0.736298
-0.856381
0.808948
-0.738372
0.871102
-0.624383
0.923901
-0.545019
0.968775
-0.470948
1.00686
-0.414419
1.03923
-0.368297
1.06701
-0.321687
1.09114
-0.280511
1.11259
-0.231825
1.13208
-0.185549
1.15028
-0.137306
1.16725
-0.11447
1.18322
-0.105033
1.1985
-0.0987721
1.21336
-0.0952737
1.22695
-0.0864862
1.23964
-0.0807336
1.25158
-0.0762844
1.2629
-0.0728443
1.27377
-0.0672094
1.28429
-0.0609984
1.29446
-0.0600125
1.30433
-0.0591179
1.31396
-0.0585434
1.32339
-0.0582131
1.33267
-0.0580598
1.34182
-0.0580374
1.35087
-0.0581041
1.35984
-0.0582328
1.36874
-0.058399
1.37759
-0.0585715
1.38639
-0.0587509
1.39516
-0.0589217
1.40389
-0.0593067
-0.0537349
1.41271
0.176159
-1.74482
0.000185303
0.3348
-1.58294
0.475325
-1.41447
0.59836
-1.24629
0.704993
-1.09203
0.796772
-0.948157
0.875371
-0.816968
0.942598
-0.691608
0.99967
-0.602089
1.04814
-0.519418
1.08924
-0.455514
1.12413
-0.403181
1.15402
-0.351577
1.17991
-0.3064
1.20287
-0.254782
1.22365
-0.206325
1.24297
-0.156629
1.26093
-0.132425
1.27775
-0.121851
1.29379
-0.114811
1.30935
-0.110837
1.32356
-0.1007
1.33683
-0.0940033
1.34932
-0.0887696
1.36116
-0.0846797
1.37252
-0.0785725
1.38353
-0.0720104
1.39417
-0.0706521
1.40451
-0.0694574
1.4146
-0.0686374
1.4245
-0.0681066
1.43423
-0.0677901
1.44382
-0.0676349
1.45331
-0.0675938
1.46271
-0.0676347
1.47204
-0.0677289
1.48131
-0.0678423
1.49054
-0.0679722
1.49971
-0.0681009
1.50885
-0.0684448
-0.0629579
1.51807
0.190782
-1.93577
0.000176409
0.362552
-1.75471
0.514718
-1.56663
0.647949
-1.37952
0.763424
-1.20751
0.862813
-1.04754
0.947923
-0.902075
1.02071
-0.764389
1.08247
-0.663846
1.13489
-0.57184
1.1793
-0.499919
1.21695
-0.440829
1.24916
-0.383786
1.27699
-0.334229
1.3016
-0.279386
1.32379
-0.228512
1.34434
-0.177182
1.36336
-0.151442
1.3811
-0.139588
1.39795
-0.131657
1.41423
-0.127124
1.42909
-0.115554
1.44294
-0.107853
1.45596
-0.101787
1.46829
-0.0970101
1.48012
-0.0904046
1.49158
-0.0834732
1.50266
-0.0817249
1.51342
-0.0802165
1.52392
-0.07914
1.53421
-0.0783997
1.54433
-0.0779124
1.55432
-0.0776179
1.56419
-0.0774628
1.57396
-0.0774102
1.58366
-0.0774272
1.59329
-0.0774763
1.60287
-0.0775519
1.6124
-0.077634
1.62189
-0.0779321
-0.0725325
1.63146
0.206746
-2.14268
0.00016113
0.392871
-1.94082
0.557745
-1.7315
0.702118
-1.52388
0.827259
-1.33264
0.934971
-1.15525
1.02721
-0.994308
1.10608
-0.843258
1.17298
-0.730743
1.22974
-0.628598
1.27778
-0.547957
1.31846
-0.481513
1.35322
-0.418537
1.38317
-0.364185
1.40958
-0.305789
1.4333
-0.252236
1.45519
-0.199068
1.47536
-0.171604
1.49407
-0.158303
1.51177
-0.149351
1.5288
-0.144157
1.5443
-0.131058
1.55873
-0.122277
1.57226
-0.11532
1.58506
-0.109809
1.59733
-0.102672
1.6092
-0.0953457
1.62066
-0.0931831
1.63179
-0.091342
1.64264
-0.0899936
1.65327
-0.0890314
1.66372
-0.0883629
1.67402
-0.0879205
1.6842
-0.0876442
1.69428
-0.087492
1.70428
-0.087426
1.71421
-0.0874062
1.72408
-0.0874228
1.7339
-0.0874542
1.74367
-0.087702
-0.0823935
1.75353
0.224207
-2.36702
0.000150689
0.426003
-2.14263
0.604782
-1.91026
0.761333
-1.68043
0.897044
-1.46835
1.01386
-1.27207
1.1139
-1.09434
1.19944
-0.928792
1.27197
-0.803273
1.33348
-0.69011
1.38551
-0.599981
1.42952
-0.525526
1.46706
-0.456073
1.49934
-0.396467
1.52771
-0.334155
1.5531
-0.277627
1.57643
-0.222394
1.59782
-0.192989
1.61757
-0.178053
1.63614
-0.167924
1.65393
-0.161946
1.67008
-0.147209
1.68507
-0.137262
1.69909
-0.129343
1.71232
-0.123041
1.72498
-0.115329
1.73721
-0.107577
1.749
-0.104969
1.76043
-0.102771
1.77157
-0.101131
1.78247
-0.0999309
1.79317
-0.0990685
1.80372
-0.0984675
1.81413
-0.0980613
1.82445
-0.0978018
1.83466
-0.0976469
1.84481
-0.0975524
1.85489
-0.0975055
1.86492
-0.0974816
1.87489
-0.097675
-0.0924619
1.88496
0.243293
-2.61045
0.000131307
0.462255
-2.36157
0.656229
-2.10424
0.826115
-1.85031
0.973396
-1.61562
1.10019
-1.39886
1.20877
-1.20292
1.30161
-1.02163
1.38031
-0.881978
1.44704
-0.756835
1.50343
-0.656375
1.55109
-0.573186
1.59168
-0.496658
1.6265
-0.431289
1.65701
-0.364657
1.6842
-0.304826
1.70908
-0.247266
1.73176
-0.215676
1.7526
-0.198887
1.77208
-0.187402
1.79062
-0.180492
1.80741
-0.163996
1.82293
-0.152782
1.83741
-0.143818
1.85102
-0.136659
1.86402
-0.128322
1.87655
-0.120105
1.88859
-0.117016
1.90025
-0.11443
1.9116
-0.112474
1.92268
-0.111017
1.93355
-0.109944
1.94426
-0.109171
1.95482
-0.108624
1.96527
-0.108248
1.97561
-0.107997
1.98588
-0.107821
1.99608
-0.107705
2.00622
-0.107622
2.0163
-0.107756
-0.102644
2.02648
0.264194
-2.87475
0.000120362
0.501921
-2.59931
0.712554
-2.31486
0.897037
-2.03478
1.057
-1.77558
1.19472
-1.53658
1.31266
-1.32086
1.41351
-1.12247
1.49898
-0.967454
1.57142
-0.829276
1.63261
-0.71756
1.68427
-0.624843
1.72818
-0.540576
1.76578
-0.468883
1.7986
-0.397481
1.82775
-0.333976
1.85428
-0.273797
1.87835
-0.239742
1.90031
-0.220851
1.92071
-0.207801
1.94
-0.199783
1.95739
-0.181391
1.97341
-0.168797
1.98829
-0.158694
2.00223
-0.150599
2.01549
-0.141578
2.02823
-0.132852
2.04045
-0.129236
2.05225
-0.126228
2.06371
-0.123927
2.07488
-0.122187
2.08582
-0.120884
2.09657
-0.119923
2.10717
-0.119222
2.11764
-0.118719
2.128
-0.118362
2.13828
-0.118098
2.14848
-0.117907
2.15862
-0.117758
2.16869
-0.117829
-0.112824
2.17887
0.287072
-3.16194
0.000103066
0.545383
-2.85759
0.774251
-2.54373
0.974741
-2.23527
1.14861
-1.94944
1.29832
-1.68629
1.42654
-1.44909
1.53617
-1.23209
1.62908
-1.06036
1.70779
-0.907987
1.77423
-0.783999
1.83026
-0.680877
1.87782
-0.58814
1.91844
-0.509497
1.95378
-0.432823
1.98503
-0.36523
2.01333
-0.302098
2.03885
-0.265262
2.06198
-0.243983
2.0833
-0.229123
2.10331
-0.219791
2.12127
-0.199352
2.13773
-0.185248
2.15293
-0.1739
2.16712
-0.164781
2.18055
-0.155008
2.19341
-0.145719
2.2057
-0.141525
2.21753
-0.138052
2.22897
-0.135371
2.24011
-0.133321
2.25099
-0.131764
2.26166
-0.130596
2.27216
-0.129725
2.28253
-0.129081
2.29277
-0.128608
2.30292
-0.128247
2.31299
-0.127974
2.32299
-0.127755
2.33291
-0.127757
-0.122867
2.34296
0.312161
-3.47417
9.72859e-05
0.593009
-3.13846
0.841894
-2.79259
1.05995
-2.45331
1.24907
-2.13856
1.41196
-1.84916
1.55147
-1.5886
1.67075
-1.35137
1.77183
-1.16143
1.85742
-0.993585
1.92963
-0.856203
1.99046
-0.741708
2.042
-0.639687
2.08591
-0.553403
2.12398
-0.470896
2.1575
-0.398746
2.18768
-0.332284
2.21473
-0.292306
2.23905
-0.268309
2.26129
-0.251358
2.28197
-0.240468
2.30044
-0.217816
2.31725
-0.202056
2.33269
-0.189341
2.34701
-0.179095
2.3605
-0.168492
2.37336
-0.158578
2.38559
-0.153748
2.3973
-0.149762
2.4086
-0.146661
2.41954
-0.144267
2.43021
-0.142429
2.44065
-0.141031
2.4509
-0.139971
2.46099
-0.139172
2.47095
-0.13857
2.4808
-0.138102
2.49057
-0.137739
2.50026
-0.137442
2.50987
-0.13737
-0.132602
2.51961
0.339668
-3.81394
8.64562e-05
0.645275
-3.44404
0.91611
-3.06344
1.15344
-2.69064
1.35935
-2.34445
1.53671
-2.02652
1.68865
-1.74054
1.81854
-1.48127
1.9286
-1.27149
2.02177
-1.08676
2.10031
-0.934742
2.1664
-0.807802
2.22231
-0.695594
2.2698
-0.600896
2.31083
-0.511928
2.34678
-0.434696
2.37897
-0.364472
2.40761
-0.320941
2.43315
-0.293851
2.45627
-0.274482
2.47756
-0.261748
2.49644
-0.236701
2.51351
-0.219121
2.52907
-0.2049
2.54339
-0.193413
2.5568
-0.181891
2.5695
-0.171282
2.5815
-0.165747
2.59293
-0.161191
2.6039
-0.157623
2.61448
-0.154846
2.62474
-0.152695
2.63475
-0.15104
2.64455
-0.149769
2.65417
-0.148797
2.66366
-0.148051
2.67301
-0.147465
2.68228
-0.147001
2.69145
-0.146621
2.70056
-0.146469
-0.141832
2.70978
0.369892
-4.18391
8.99422e-05
0.70266
-3.77683
0.997626
-3.35838
1.25615
-2.94915
1.48049
-2.56878
1.67378
-2.2198
1.83939
-1.90615
1.98099
-1.62286
2.10094
-1.39144
2.20245
-1.18827
2.28796
-1.02025
2.35983
-0.879678
2.42051
-0.756277
2.47192
-0.652303
2.51616
-0.556166
2.55472
-0.473258
2.58903
-0.398784
2.61932
-0.351229
2.64608
-0.320615
2.67005
-0.29845
2.69184
-0.283539
2.71104
-0.255895
2.72823
-0.236311
2.74376
-0.220429
2.75792
-0.20757
2.77105
-0.195027
2.78341
-0.183641
2.79499
-0.177322
2.80593
-0.172132
2.81635
-0.168042
2.82634
-0.164837
2.83598
-0.162335
2.84533
-0.160391
2.85444
-0.158884
2.86336
-0.157717
2.87212
-0.156811
2.88074
-0.156092
2.88927
-0.155518
2.89768
-0.155044
2.90602
-0.154804
-0.150308
2.91449
0.403108
-4.58712
8.64281e-05
0.765772
-4.13946
1.08726
-3.67988
1.36909
-3.23098
1.61372
-2.8134
1.82455
-2.43063
2.00522
-2.08682
2.15971
-1.77734
2.29057
-1.52231
2.40128
-1.29898
2.49446
-1.11344
2.5727
-0.957912
2.63861
-0.822198
2.69429
-0.707982
2.74201
-0.603882
2.78337
-0.514622
2.81993
-0.435338
2.85192
-0.383223
2.8799
-0.34859
2.90464
-0.323189
2.92681
-0.30571
2.94617
-0.275251
2.96331
-0.253455
2.97862
-0.235738
2.99241
-0.221359
3.00506
-0.207679
3.01685