/*--------------------------------*- C++ -*----------------------------------*\
  =========                 |
  \\      /  F ield         | OpenFOAM: The Open Source CFD Toolbox
   \\    /   O peration     | Website:  https://openfoam.org
    \\  /    A nd           | Version:  11
     \\/     M anipulation  |
\*---------------------------------------------------------------------------*/
FoamFile
{
    format      ascii;
    class       volVectorField;
    location    "50";
    object      U;
}
// * * * * * * * * * * * * * * * * * * * * * * * * * * * * * * * * * * * * * //

dimensions      [0 1 -1 0 0 0 0];

internalField   nonuniform List<vector> 
11040
(
(1.62339 2.07285 7.49982e-18)
(2.19265 6.39948 -1.64562e-17)
(3.78741 10.8696 -1.78805e-17)
(6.36068 14.733 2.2755e-17)
(9.63022 17.9324 -1.16238e-17)
(13.6775 20.2046 4.14632e-18)
(18.1164 21.1103 0)
(21.2654 19.2211 -7.16391e-18)
(22.5583 16.5657 0)
(23.4486 15.0988 -1.55058e-17)
(24.6072 14.8384 0)
(26.6908 15.8907 0)
(30.2372 17.0572 3.46473e-17)
(34.8898 16.8729 0)
(37.8758 13.1959 0)
(36.6492 6.79718 0)
(28.8419 -0.655875 0)
(21.3436 -4.44793 6.02709e-17)
(18.7832 -4.81997 4.75737e-17)
(18.8956 -4.22024 -3.79625e-17)
(19.2704 -3.8249 3.21532e-17)
(19.2804 -3.62517 -9.28814e-19)
(19.1153 -3.49659 -2.48928e-17)
(18.9414 -3.39869 2.84157e-19)
(18.8983 -3.32644 0)
(18.7319 -3.41517 0)
(17.8975 -3.59784 0)
(17.0907 -3.59409 0)
(16.5668 -3.49349 2.35701e-17)
(16.1744 -3.39151 0)
(15.7818 -3.29849 0)
(15.3721 -3.21055 4.42299e-20)
(14.9515 -3.12784 2.69619e-20)
(14.5031 -3.04432 -2.75223e-20)
(14.006 -2.95039 -6.48432e-19)
(13.4503 -2.83694 -1.60955e-18)
(12.825 -2.70111 -3.9385e-18)
(12.1576 -2.55078 -5.18344e-20)
(11.3049 -2.37215 3.21053e-20)
(10.5802 -2.16437 0)
(8.01062 -1.98601 1.74198e-17)
(2.79229 1.96515 -1.15341e-18)
(3.50779 5.92808 -6.7298e-19)
(5.26006 9.83984 -1.12297e-17)
(8.01257 13.1689 -4.54946e-18)
(11.3925 15.84 0)
(15.5916 17.5164 1.09333e-18)
(20.079 17.7227 6.52149e-19)
(24.042 16.2452 2.29167e-18)
(25.7458 14.7657 -1.00791e-17)
(26.3165 14.3267 -9.97933e-20)
(27.0763 14.5793 -2.34617e-19)
(28.6949 15.6353 8.07936e-19)
(32.0188 15.9737 0)
(36.5272 14.2216 0)
(40.756 9.27148 0)
(43.0954 3.6154 9.2595e-18)
(39.9125 -2.55722 1.84783e-18)
(33.1941 -4.67534 -3.2341e-17)
(27.8943 -4.31471 -2.12808e-17)
(25.1426 -3.94433 -4.72734e-19)
(23.7931 -3.84138 -1.78187e-17)
(22.9411 -3.75751 1.6193e-17)
(22.3262 -3.66899 -4.90536e-19)
(21.8704 -3.60827 -8.59188e-20)
(21.5951 -3.58616 -1.23536e-17)
(21.3456 -3.77843 3.48991e-19)
(20.7547 -4.04017 -1.09685e-17)
(19.9331 -3.92827 -1.22697e-19)
(19.2808 -3.77989 -7.0257e-18)
(18.751 -3.67865 0)
(18.2568 -3.59359 0)
(17.782 -3.51507 -7.68926e-18)
(17.3225 -3.44103 5.17716e-20)
(16.8626 -3.35878 1.64159e-18)
(16.3758 -3.25443 -6.46931e-20)
(15.848 -3.12268 0)
(15.2599 -2.97121 2.36516e-18)
(14.6455 -2.81476 -1.20953e-20)
(13.8625 -2.6387 -5.32814e-18)
(13.298 -2.43891 0)
(11.4313 -2.22166 -1.76174e-17)
(4.43597 1.79139 0)
(5.15016 5.39744 4.79995e-18)
(6.71589 8.90834 3.82839e-18)
(9.05277 11.9836 1.00135e-17)
(11.9645 14.4834 -5.52974e-19)
(15.4997 16.2016 4.35551e-18)
(19.2994 16.8276 -6.75606e-19)
(22.6172 16.1271 9.25677e-19)
(24.5693 15.1748 1.74177e-18)
(25.677 14.7792 -7.90609e-18)
(26.8565 14.8033 0)
(28.7064 15.3576 -8.74074e-19)
(31.8183 15.3659 1.63976e-17)
(35.8741 13.8275 -2.14698e-17)
(39.4237 9.55531 0)
(41.4594 4.28564 -7.36056e-18)
(40.7148 -1.83411 1.39298e-18)
(36.8347 -4.43678 2.06898e-17)
(32.6298 -4.65997 -1.77796e-17)
(29.6284 -4.51532 1.45692e-17)
(27.6516 -4.39924 1.23358e-17)
(26.2472 -4.25479 -1.12099e-17)
(25.2274 -4.11877 0)
(24.4766 -4.02769 9.924e-18)
(23.9713 -3.98392 9.45263e-18)
(23.5131 -4.1296 -5.38179e-19)
(22.7757 -4.33983 8.10396e-18)
(21.9553 -4.24964 -1.83406e-19)
(21.2713 -4.12071 5.58295e-18)
(20.6956 -4.0232 -4.53682e-18)
(20.1538 -3.933 3.69475e-18)
(19.6289 -3.84516 2.82343e-18)
(19.1215 -3.75763 -2.07262e-18)
(18.6193 -3.65566 -1.17713e-18)
(18.0984 -3.5279 3.32509e-19)
(17.5418 -3.37228 5.70792e-19)
(16.9289 -3.20215 -8.73329e-21)
(16.2882 -3.02732 0)
(15.4996 -2.84094 7.86e-20)
(14.8831 -2.59006 -2.82247e-20)
(13.2979 -2.32399 6.04756e-18)
(6.23105 1.61374 0)
(6.89475 4.87543 -1.21737e-18)
(8.26848 8.01292 -2.91997e-18)
(10.2745 10.7973 -7.85272e-18)
(12.8096 13.0787 2.18285e-18)
(15.848 14.7237 -5.57775e-18)
(19.1316 15.5115 -1.91779e-18)
(22.0833 15.2849 1.29873e-18)
(24.1863 14.5817 5.06564e-18)
(25.5791 14.1757 1.05189e-17)
(26.9029 14.1639 -1.67238e-18)
(28.7493 14.5377 -3.8983e-19)
(31.542 14.4608 2.80843e-19)
(35.1017 13.1074 1.91153e-17)
(38.3428 9.5274 -2.31978e-18)
(40.0695 4.89159 0)
(39.6247 -0.690232 -2.1577e-18)
(37.0071 -3.79233 2.49554e-18)
(33.9463 -4.49439 2.88912e-17)
(31.6177 -4.52983 -6.95126e-19)
(29.902 -4.5042 1.07956e-17)
(28.5102 -4.42312 6.56247e-19)
(27.3879 -4.31843 0)
(26.4986 -4.24003 0)
(25.8434 -4.19688 -7.84877e-18)
(25.266 -4.31511 4.45964e-19)
(24.4762 -4.51258 -6.16664e-18)
(23.6313 -4.46019 0)
(22.9112 -4.3399 -4.13507e-18)
(22.3017 -4.23751 3.34614e-18)
(21.7329 -4.14173 -5.81472e-18)
(21.1841 -4.04648 -2.18675e-18)
(20.6556 -3.94997 1.60036e-18)
(20.1361 -3.83915 0)
(19.6019 -3.70336 0)
(19.0347 -3.53896 -7.06976e-20)
(18.4141 -3.35763 0)
(17.7669 -3.16414 0)
(16.993 -2.9593 2.92421e-18)
(16.369 -2.66336 -4.20887e-20)
(14.9613 -2.35915 1.58113e-20)
(8.08306 1.4378 -2.63927e-19)
(8.69071 4.35828 0)
(9.88531 7.13251 3.07854e-18)
(11.5885 9.61672 -1.0777e-18)
(13.747 11.6839 4.49414e-18)
(16.3124 13.2508 -5.41903e-18)
(19.0975 14.1614 2.35968e-18)
(21.6918 14.3299 -5.3509e-20)
(23.8154 13.9823 0)
(25.3952 13.6991 -4.98717e-19)
(26.8288 13.6577 6.08382e-18)
(28.6565 13.817 4.67593e-18)
(31.1721 13.5839 -9.05901e-18)
(34.2682 12.3349 0)
(37.2031 9.32269 -1.44362e-17)
(38.9621 5.24787 0)
(38.7034 0.252822 7.06461e-18)
(36.5819 -3.00811 -2.24364e-19)
(33.99 -4.04082 -1.04202e-18)
(32.0375 -4.24556 2.61081e-18)
(30.6659 -4.34254 -1.01302e-17)
(29.5492 -4.36548 -9.25604e-18)
(28.5964 -4.3281 9.9783e-19)
(27.7873 -4.29183 0)
(27.1396 -4.27524 6.59926e-18)
(26.5577 -4.38393 -7.10071e-19)
(25.8126 -4.57599 5.45125e-18)
(25.0046 -4.56528 -2.45441e-19)
(24.2881 -4.46348 4.54065e-19)
(23.6716 -4.36485 -3.04849e-18)
(23.0993 -4.26877 2.10463e-18)
(22.5496 -4.16957 2.04228e-18)
(22.0217 -4.06919 -1.64188e-20)
(21.5052 -3.95917 -5.32069e-20)
(20.977 -3.82698 1.86326e-20)
(20.4188 -3.6628 -5.45285e-20)
(19.8112 -3.47163 -3.73531e-20)
(19.1801 -3.25468 1.93965e-20)
(18.4432 -3.02241 -2.17105e-18)
(17.8443 -2.68814 0)
(16.6202 -2.35629 3.17017e-18)
(9.94848 1.26548 9.77551e-19)
(10.498 3.85217 -6.9184e-19)
(11.5236 6.27941 2.10172e-18)
(12.9513 8.46654 -3.69929e-18)
(14.7553 10.319 -2.45969e-18)
(16.8894 11.7891 8.89052e-18)
(19.2191 12.7701 1.97155e-18)
(21.4565 13.2267 3.81845e-19)
(23.4994 13.2122 0)
(25.1997 13.0732 -5.08962e-18)
(26.7302 13.0097 -4.87814e-18)
(28.5243 12.9994 -2.52937e-18)
(30.7775 12.6477 2.87331e-18)
(33.4376 11.5088 1.87138e-18)
(36.0275 9.03408 1.22211e-17)
(37.8159 5.59871 -2.54932e-18)
(37.9389 1.21327 -3.25669e-18)
(36.2976 -2.09147 -2.23752e-17)
(33.9683 -3.47841 -9.9092e-18)
(32.0822 -3.88912 1.94645e-18)
(30.7963 -4.08696 4.60145e-18)
(29.8242 -4.1893 7.84703e-18)
(29.0203 -4.21108 -6.33098e-18)
(28.3359 -4.21615 0)
(27.77 -4.23097 0)
(27.2613 -4.33672 0)
(26.6361 -4.52145 4.2495e-18)
(25.9332 -4.55367 0)
(25.2789 -4.48429 0)
(24.7022 -4.40024 2.51364e-18)
(24.1648 -4.31114 0)
(23.647 -4.21411 -1.61609e-18)
(23.1483 -4.11548 1.17991e-18)
(22.6612 -4.01232 0)
(22.1657 -3.89102 0)
(21.6442 -3.73469 -1.95085e-19)
(21.0785 -3.53951 1.26481e-20)
(20.4918 -3.30286 1.17582e-18)
(19.8195 -3.04407 1.74126e-18)
(19.272 -2.68403 -2.18173e-18)
(18.2507 -2.3425 -2.54481e-18)
(11.79 1.09944 0)
(12.2803 3.36611 0)
(13.1499 5.46738 1.61173e-18)
(14.3325 7.36872 1.24737e-18)
(15.8156 9.00806 0)
(17.5644 10.3638 -3.28902e-18)
(19.4861 11.3659 -4.87119e-19)
(21.3827 12.0032 -1.65961e-18)
(23.2625 12.2576 6.54865e-19)
(24.9884 12.2811 -6.25561e-20)
(26.5717 12.2361 0)
(28.3117 12.1211 2.13015e-18)
(30.3249 11.6952 -1.46403e-17)
(32.5971 10.6654 6.35771e-18)
(34.85 8.6599 4.09888e-18)
(36.5904 5.85296 8.82582e-18)
(37.1068 2.13648 -6.51434e-18)
(36.0416 -1.08176 6.76693e-18)
(34.0657 -2.79673 -8.21818e-18)
(32.2281 -3.45941 0)
(30.9073 -3.77254 -6.22171e-18)
(29.9433 -3.95172 -5.82085e-18)
(29.1779 -4.03078 1.05742e-17)
(28.5402 -4.07253 0)
(28.0131 -4.11347 4.42156e-18)
(27.5498 -4.21441 3.97732e-18)
(27.0237 -4.38158 3.85657e-19)
(26.4292 -4.44525 -6.98535e-20)
(25.8564 -4.41067 -3.60467e-19)
(25.3422 -4.34641 0)
(24.8623 -4.26996 0)
(24.3985 -4.18078 1.34936e-18)
(23.9503 -4.08656 -1.22792e-20)
(23.5144 -3.98961 7.30731e-19)
(23.0753 -3.87893 0)
(22.6167 -3.73451 -2.25807e-20)
(22.1208 -3.54478 -2.12277e-20)
(21.6064 -3.30161 -9.26801e-19)
(21.0261 -3.02727 1.22364e-18)
(20.5525 -2.65811 1.80516e-18)
(19.7526 -2.31841 0)
(13.5705 0.942523 0)
(14.0026 2.90887 -1.45369e-18)
(14.732 4.70917 2.47738e-18)
(15.7014 6.34229 -6.90628e-18)
(16.9047 7.77372 3.50317e-18)
(18.3192 8.99964 2.71951e-18)
(19.8844 9.97721 0)
(21.4665 10.7031 1.13669e-18)
(23.1301 11.1447 0)
(24.7865 11.3221 3.96957e-19)
(26.3607 11.3279 -1.15353e-18)
(28.022 11.1677 1.08883e-18)
(29.8169 10.7154 3.89924e-18)
(31.7531 9.80051 1.73339e-18)
(33.6909 8.19428 -6.39653e-19)
(35.3172 5.95515 -9.69844e-18)
(36.125 2.92423 4.27798e-19)
(35.6428 -0.0466088 0)
(34.1422 -1.98586 3.71573e-18)
(32.4656 -2.92228 6.23658e-19)
(31.1307 -3.38577 5.31052e-18)
(30.1403 -3.65686 5.90052e-18)
(29.3644 -3.80377 1.21379e-18)
(28.7213 -3.88884 0)
(28.1875 -3.95666 -3.65915e-18)
(27.7232 -4.05565 -3.3013e-18)
(27.2375 -4.2011 -2.94006e-18)
(26.7074 -4.28156 0)
(26.1887 -4.27667 2.21019e-18)
(25.7177 -4.2326 0)
(25.2813 -4.17022 0)
(24.863 -4.09053 0)
(24.4607 -3.99957 -8.50619e-19)
(24.0739 -3.90323 -1.16773e-18)
(23.6921 -3.79644 9.98296e-21)
(23.3009 -3.66216 -3.60566e-20)
(22.8833 -3.48495 0)
(22.4514 -3.25085 -5.62884e-19)
(21.9745 -2.97717 -1.95719e-18)
(21.583 -2.61728 -1.19424e-18)
(21.0025 -2.28233 -2.07287e-20)
(15.2575 0.797213 0)
(15.6341 2.48735 1.23121e-18)
(16.2407 4.01455 -2.42511e-21)
(17.0292 5.40138 3.72453e-19)
(17.9959 6.63414 -2.99587e-18)
(19.1284 7.72012 -2.32782e-18)
(20.389 8.63539 1.62119e-18)
(21.6896 9.37769 -9.60209e-19)
(23.1135 9.92202 -1.14421e-19)
(24.6244 10.2199 7.99663e-19)
(26.1203 10.2934 0)
(27.6707 10.14 -5.70342e-18)
(29.2627 9.70907 5.23682e-18)
(30.9117 8.91959 -6.75999e-18)
(32.565 7.64924 0)
(34.0373 5.90297 -2.47913e-18)
(35.0086 3.5243 7.31298e-18)
(35.0257 0.936985 -4.98886e-18)
(34.0562 -1.07735 0)
(32.6646 -2.26304 0)
(31.3962 -2.90746 0)
(30.4045 -3.29014 -5.83853e-18)
(29.6205 -3.5178 2.48397e-19)
(28.9644 -3.65824 -1.55395e-18)
(28.4114 -3.75993 3.03022e-18)
(27.9291 -3.86615 1.28177e-18)
(27.4518 -3.99671 -1.27702e-18)
(26.954 -4.08606 2.13968e-18)
(26.4646 -4.10612 2.34216e-20)
(26.0135 -4.0821 0)
(25.5972 -4.03368 -2.8352e-19)
(25.2025 -3.96361 2.8633e-19)
(24.8259 -3.87563 7.77002e-19)
(24.4684 -3.77665 4.97782e-19)
(24.1241 -3.66766 0)
(23.782 -3.53852 3.68971e-20)
(23.4266 -3.3751 0)
(23.0634 -3.16034 4.84299e-19)
(22.6755 -2.90173 7.45814e-19)
(22.3525 -2.56776 1.8659e-18)
(21.9481 -2.2401 0)
(16.8247 0.665303 9.63817e-19)
(17.15 2.10593 -2.56006e-18)
(17.6516 3.38927 -2.93767e-18)
(18.2895 4.55415 5.62259e-18)
(19.0614 5.60113 0)
(19.9616 6.54329 -1.59128e-18)
(20.9678 7.36914 1.32554e-18)
(22.023 8.07559 -1.18355e-18)
(23.2084 8.64994 -1.02919e-19)
(24.5258 9.02003 -8.571e-19)
(25.8824 9.15956 9.2985e-19)
(27.2868 9.04887 2.96519e-18)
(28.6841 8.6779 -5.47878e-18)
(30.0868 8.0237 6.55888e-18)
(31.4894 7.03603 -3.50304e-18)
(32.7895 5.7032 4.96176e-18)
(33.8087 3.90321 -3.75702e-18)
(34.1904 1.77994 8.12789e-18)
(33.7292 -0.144852 0)
(32.7114 -1.49678 0)
(31.6044 -2.325 -3.2952e-18)
(30.6616 -2.8357 4.52317e-19)
(29.8929 -3.15624 3.19269e-18)
(29.238 -3.36475 2.7373e-18)
(28.6742 -3.51085 -3.66617e-18)
(28.1776 -3.63621 -1.03682e-18)
(27.7026 -3.76371 -9.21831e-19)
(27.2263 -3.85972 -1.6271e-18)
(26.7589 -3.90058 8.40856e-19)
(26.3216 -3.89646 0)
(25.9164 -3.86277 2.40262e-19)
(25.5346 -3.80381 -4.31442e-19)
(25.1718 -3.72217 -4.45125e-19)
(24.8287 -3.62349 0)
(24.5032 -3.51252 0)
(24.1888 -3.38573 0)
(23.8737 -3.23371 0)
(23.5588 -3.04037 2.29344e-19)
(23.2356 -2.80461 0)
(22.9609 -2.5065 -6.87964e-19)
(22.6667 -2.19525 -2.1469e-20)
(18.2533 0.547827 0)
(18.5324 1.76637 0)
(18.9457 2.83505 -2.11462e-18)
(19.4604 3.80308 0)
(20.0749 4.68004 0)
(20.7873 5.48096 0)
(21.5849 6.20181 0)
(22.4313 6.83926 0)
(23.396 7.39004 0)
(24.5015 7.78374 -9.73749e-19)
(25.6777 7.9715 8.63364e-19)
(26.9063 7.91893 -6.34238e-19)
(28.1121 7.6308 2.09943e-18)
(29.299 7.11554 2.90898e-18)
(30.4815 6.36596 -4.02422e-18)
(31.6065 5.37081 2.94067e-18)
(32.5868 4.05144 -1.6009e-20)
(33.1842 2.40603 -5.61978e-18)
(33.1426 0.711974 3.02445e-18)
(32.5295 -0.678931 -3.22902e-18)
(31.668 -1.64978 0)
(30.8365 -2.28892 -2.60839e-18)
(30.1176 -2.70884 -4.76035e-18)
(29.4869 -2.99422 4.48876e-18)
(28.93 -3.19458 -2.16302e-18)
(28.4322 -3.35073 1.731e-18)
(27.9644 -3.48809 -1.711e-18)
(27.5089 -3.59315 -6.67575e-19)
(27.0656 -3.65186 -1.14885e-18)
(26.6462 -3.66702 -4.94236e-19)
(26.2549 -3.64907 0)
(25.8868 -3.60359 0)
(25.5372 -3.53309 -5.91371e-19)
(25.2057 -3.44173 -3.53153e-19)
(24.8926 -3.33428 2.08017e-19)
(24.5955 -3.21136 1.56597e-19)
(24.3079 -3.06803 0)
(24.0291 -2.8931 -1.59449e-19)
(23.7542 -2.68145 -2.68972e-20)
(23.518 -2.42153 0)
(23.285 -2.13993 4.43534e-19)
(19.5325 0.445066 0)
(19.7705 1.46819 -1.83803e-18)
(20.1105 2.35021 3.56641e-18)
(20.5253 3.14617 0)
(21.014 3.87079 0)
(21.5765 4.53858 1.99437e-18)
(22.2055 5.14966 2.96405e-18)
(22.878 5.70108 -1.80211e-18)
(23.6489 6.19511 0)
(24.5477 6.57354 -2.00377e-19)
(25.5272 6.78437 -9.33357e-19)
(26.5637 6.78684 -7.2061e-19)
(27.5803 6.58664 1.97522e-18)
(28.5729 6.20406 6.01404e-19)
(29.5603 5.65339 -2.72687e-18)
(30.516 4.92909 1.04743e-18)
(31.4027 3.98841 -3.53375e-18)
(32.0832 2.7765 4.0328e-18)
(32.3318 1.3964 1.07792e-18)
(32.088 0.100443 2.22361e-18)
(31.5201 -0.928806 0)
(30.8612 -1.66679 2.16171e-18)
(30.2349 -2.17863 -1.79387e-18)
(29.6581 -2.54138 3.82427e-18)
(29.1316 -2.80133 0)
(28.6507 -2.9973 2.94017e-18)
(28.2005 -3.15573 0)
(27.7698 -3.27493 1.09189e-18)
(27.3545 -3.35084 -1.10637e-18)
(26.9595 -3.3851 8.81456e-19)
(26.5881 -3.38468 -3.43601e-19)
(26.2382 -3.35553 3.45959e-19)
(25.9058 -3.30052 2.62244e-19)
(25.5901 -3.22269 5.7653e-19)
(25.2919 -3.12515 -1.35747e-19)
(25.012 -3.00999 -4.0625e-19)
(24.7485 -2.87564 0)
(24.5012 -2.71658 1.98727e-20)
(24.2667 -2.52853 2.43093e-20)
(24.0654 -2.30549 -2.42439e-20)
(23.8721 -2.06359 -3.60744e-19)
(20.6583 0.35676 0)
(20.8603 1.20942 -3.30466e-18)
(21.1394 1.93087 5.96201e-18)
(21.4736 2.57841 -2.24809e-18)
(21.8622 3.16925 1.7492e-18)
(22.3057 3.71611 -6.59938e-18)
(22.7998 4.22105 0)
(23.33 4.68194 -1.07493e-18)
(23.9373 5.10357 0)
(24.65 5.44187 0)
(25.4384 5.65203 -1.30239e-18)
(26.2828 5.69513 1.63992e-18)
(27.1171 5.57312 0)
(27.9326 5.30698 -1.33905e-18)
(28.7448 4.91822 0)
(29.541 4.4066 -4.41412e-18)
(30.3071 3.75315 5.01651e-18)
(30.9737 2.89717 6.85266e-19)
(31.3778 1.84656 -9.34113e-19)
(31.4142 0.744757 -1.89614e-18)
(31.1333 -0.240422 -1.61801e-18)
(30.6855 -1.01606 0)
(30.1935 -1.59033 -3.07558e-18)
(29.704 -2.0169 1.38769e-18)
(29.2352 -2.33269 1.28018e-18)
(28.7936 -2.57136 -1.22359e-19)
(28.3761 -2.75807 -3.2728e-18)
(27.9781 -2.89715 0)
(27.5958 -2.99212 8.34092e-19)
(27.231 -3.04637 -6.78694e-19)
(26.8855 -3.06574 6.83388e-19)
(26.5587 -3.05546 -1.01795e-18)
(26.2485 -3.01914 4.82374e-19)
(25.9539 -2.95874 2.06727e-19)
(25.6764 -2.87663 4.3477e-20)
(25.418 -2.7744 2.46467e-19)
(25.1793 -2.65323 0)
(24.9611 -2.51158 2.76781e-20)
(24.7608 -2.34883 0)
(24.5893 -2.16215 0)
(24.4264 -1.96404 0)
(21.633 0.282267 0)
(21.8034 0.98726 1.00391e-18)
(22.032 1.57196 -4.3034e-18)
(22.3009 2.09316 3.21034e-18)
(22.6099 2.56877 1.49328e-18)
(22.9591 3.00922 -8.22148e-19)
(23.3459 3.41731 5.06918e-18)
(23.7611 3.79178 -5.94416e-18)
(24.2341 4.13809 3.96417e-18)
(24.7883 4.42461 -2.04719e-18)
(25.4058 4.6171 4.64915e-19)
(26.073 4.68309 -2.09305e-18)
(26.739 4.6213 2.09053e-18)
(27.3942 4.44865 2.54942e-18)
(28.0494 4.18625 -2.32868e-18)
(28.6982 3.83639 -2.38219e-19)
(29.3362 3.39411 0)
(29.9322 2.80942 -6.06306e-19)
(30.382 2.05264 4.82399e-18)
(30.588 1.18792 -4.91703e-18)
(30.5368 0.33202 1.37664e-18)
(30.2984 -0.406232 0)
(29.9642 -0.993352 1.80036e-18)
(29.59 -1.4534 -1.68035e-18)
(29.2056 -1.80829 8.95944e-19)
(28.8266 -2.0829 -1.00719e-18)
(28.4596 -2.29826 8.5543e-19)
(28.1057 -2.46039 7.44525e-19)
(27.7637 -2.57667 -6.83255e-19)
(27.435 -2.65258 -1.11656e-18)
(27.1212 -2.69356 1.12214e-18)
(26.8229 -2.70442 -1.04159e-20)
(26.5397 -2.68869 3.7839e-19)
(26.2717 -2.64854 -2.87399e-19)
(26.0202 -2.58588 0)
(25.7872 -2.50265 7.1766e-20)
(25.5741 -2.401 -1.60374e-19)
(25.382 -2.2824 -1.62385e-19)
(25.2088 -2.14854 -1.66312e-20)
(25.0601 -1.99918 -1.83164e-21)
(24.9198 -1.84436 -4.12172e-20)
(22.4637 0.220723 -1.5368e-18)
(22.6064 0.79864 -1.011e-18)
(22.7929 1.26807 -2.15034e-18)
(23.0088 1.68312 2.53648e-18)
(23.254 2.06127 3.51108e-18)
(23.5284 2.41065 -1.62692e-18)
(23.8302 2.73414 -2.71323e-18)
(24.1534 3.03127 0)
(24.5185 3.30721 -1.82876e-18)
(24.9432 3.54009 9.3581e-19)
(25.4167 3.70564 3.9032e-19)
(25.9307 3.77923 1.23454e-18)
(26.4489 3.75808 -3.26642e-18)
(26.9628 3.65433 2.78293e-18)
(27.4797 3.48554 0)
(27.9955 3.25453 -6.45149e-19)
(28.5101 2.96287 5.44867e-18)
(29.0108 2.57405 -5.28812e-18)
(29.4358 2.05163 -1.80417e-19)
(29.7133 1.41601 7.07837e-18)
(29.8094 0.733396 -7.56802e-18)
(29.7405 0.0945595 0)
(29.5583 -0.450807 -8.79386e-19)
(29.31 -0.903133 4.42151e-19)
(29.0267 -1.26887 0)
(28.7288 -1.56222 0)
(28.4284 -1.79771 -2.50076e-18)
(28.1308 -1.98021 1.90538e-18)
(27.8376 -2.11724 -1.02003e-18)
(27.5518 -2.2148 1.02413e-18)
(27.2761 -2.2778 4.18709e-19)
(27.0122 -2.31073 1.04844e-18)
(26.7612 -2.31683 -1.56866e-18)
(26.5241 -2.29892 4.43616e-19)
(26.3021 -2.25904 -8.06411e-20)
(26.0967 -2.19982 1.90647e-19)
(25.9089 -2.12371 2.82962e-19)
(25.7394 -2.03353 -4.38859e-21)
(25.5872 -1.93175 3.11395e-20)
(25.4546 -1.81947 -1.7734e-20)
(25.3308 -1.70452 4.0273e-20)
(23.1597 0.170936 0)
(23.2779 0.640395 -5.44943e-19)
(23.4293 1.01372 -7.56165e-19)
(23.6021 1.3409 5.84873e-18)
(23.7964 1.63813 -3.88005e-18)
(24.0116 1.91149 -9.97721e-19)
(24.2465 2.16365 1.88242e-18)
(24.4969 2.39471 0)
(24.7768 2.60919 5.95118e-19)
(25.0988 2.79239 -4.11819e-19)
(25.4565 2.92804 2.5746e-19)
(25.8448 2.99868 -8.91904e-19)
(26.2392 3.00137 1.86768e-18)
(26.6334 2.94434 3.58776e-18)
(27.0318 2.84092 -3.21659e-18)
(27.4317 2.69352 -3.05167e-18)
(27.8343 2.50608 3.02257e-18)
(28.2359 2.25333 -4.09534e-22)
(28.601 1.90433 -4.35939e-18)
(28.8827 1.46044 4.52235e-18)
(29.0489 0.953502 5.23875e-18)
(29.0904 0.445664 -5.06559e-18)
(29.0284 -0.0168878 3.45832e-19)
(28.8939 -0.422694 0)
(28.7118 -0.76745 0)
(28.5013 -1.05576 0)
(28.2761 -1.29528 0)
(28.0433 -1.48814 0)
(27.8066 -1.63976 0)
(27.5707 -1.75471 0)
(27.3395 -1.83708 -3.43778e-19)
(27.1158 -1.89053 1.11428e-18)
(26.9018 -1.9183 -6.31529e-19)
(26.6988 -1.92325 -3.71544e-19)
(26.5082 -1.90802 -8.99679e-20)
(26.3309 -1.87524 0)
(26.1675 -1.82763 8.17355e-21)
(26.0187 -1.76778 3.06054e-20)
(25.8839 -1.69825 -1.07354e-19)
(25.7647 -1.62023 -8.14053e-21)
(25.6542 -1.53999 -1.35363e-20)
(23.7322 0.131218 -6.66973e-19)
(23.8288 0.508937 -2.47916e-18)
(23.951 0.802925 -3.1926e-19)
(24.0889 1.05855 3.00766e-18)
(24.2424 1.28995 4.25309e-18)
(24.4108 1.50146 4.21215e-19)
(24.593 1.69543 -3.41644e-18)
(24.7864 1.87236 1.74487e-18)
(25.0001 2.03592 -2.03512e-18)
(25.2427 2.17647 2.85557e-19)
(25.5101 2.28355 -5.19009e-19)
(25.7996 2.34544 -5.7285e-20)
(26.0949 2.35974 9.03838e-19)
(26.3917 2.33189 -1.94274e-18)
(26.6927 2.27149 2.60458e-18)
(26.9959 2.1804 -2.69204e-18)
(27.3024 2.06256 4.90318e-18)
(27.6128 1.90099 -9.8329e-18)
(27.9072 1.67284 5.25431e-18)
(28.1565 1.37359 -6.46821e-18)
(28.3374 1.01656 6.56831e-18)
(28.4335 0.639475 0)
(28.4486 0.276508 0)
(28.3994 -0.0587063 0)
(28.3019 -0.357326 9.44866e-20)
(28.1707 -0.617706 -3.0379e-18)
(28.018 -0.841986 2.84679e-18)
(27.8509 -1.02982 1.5934e-19)
(27.6736 -1.18389 0)
(27.4915 -1.30673 -1.09547e-18)
(27.309 -1.40106 1.09325e-18)
(27.1296 -1.46967 1.11278e-19)
(26.9557 -1.51531 -9.92174e-20)
(26.789 -1.5406 -6.71111e-19)
(26.6307 -1.54808 7.44528e-19)
(26.4819 -1.54011 0)
(26.3431 -1.51901 -5.21766e-20)
(26.2151 -1.48686 7.39613e-21)
(26.0979 -1.44573 1.15849e-19)
(25.9929 -1.39664 -2.22384e-20)
(25.8961 -1.34466 3.47314e-20)
(24.1775 0.101438 5.86289e-19)
(24.2564 0.405271 0)
(24.355 0.636835 -1.96964e-19)
(24.4655 0.83734 1.26635e-18)
(24.5876 1.0182 1.19507e-18)
(24.7203 1.18237 -2.2608e-18)
(24.8629 1.33194 0)
(25.0134 1.46768 6.41919e-19)
(25.1781 1.59234 2.99385e-19)
(25.3624 1.69968 2.7798e-19)
(25.5639 1.78299 4.36265e-20)
(25.7808 1.83456 1.01719e-18)
(26.0025 1.85272 -1.04932e-18)
(26.2261 1.84109 -1.43369e-18)
(26.4533 1.8066 -9.09711e-19)
(26.6824 1.75062 -8.77641e-19)
(26.9145 1.6766 -9.35898e-19)
(27.1506 1.57269 3.22819e-18)
(27.38 1.42266 0)
(27.5849 1.2213 4.78916e-18)
(27.7499 0.973733 -4.56553e-18)
(27.8599 0.702166 -5.12122e-18)
(27.9116 0.429316 5.09104e-18)
(27.9129 0.166486 0)
(27.8725 -0.0772584 -8.68673e-20)
(27.8003 -0.29753 0)
(27.7056 -0.493262 1.56227e-19)
(27.5942 -0.662832 -2.23025e-18)
(27.4698 -0.806943 2.07681e-18)
(27.3372 -0.92649 1.77988e-18)
(27.2007 -1.02297 -1.77114e-18)
(27.0634 -1.09822 -1.01053e-19)
(26.9278 -1.15426 4.88886e-20)
(26.7957 -1.19311 0)
(26.6685 -1.21671 -6.87703e-20)
(26.5474 -1.2269 0)
(26.4332 -1.22541 -1.85778e-19)
(26.3268 -1.2138 -1.24074e-20)
(26.2286 -1.19366 1.21647e-19)
(26.1396 -1.16586 0)
(26.0581 -1.13466 0)
(24.509 0.0799171 -1.38339e-18)
(24.5743 0.326898 1.31209e-18)
(24.6548 0.51161 3.76195e-19)
(24.7445 0.671104 -1.15425e-18)
(24.8431 0.814411 2.15761e-19)
(24.9495 0.943575 0)
(25.0631 1.06046 -2.29741e-18)
(25.1825 1.16595 1.72068e-18)
(25.3119 1.26208 3.36559e-19)
(25.4549 1.34473 -4.60818e-19)
(25.6099 1.40952 -9.83803e-20)
(25.7757 1.4513 1.96064e-19)
(25.9452 1.46898 1.64776e-18)
(26.1164 1.46499 -1.42469e-18)
(26.2902 1.44435 3.77795e-19)
(26.4655 1.40811 -3.80201e-19)
(26.6427 1.35922 5.07175e-18)
(26.8231 1.2895 -1.80155e-18)
(27.0005 1.18757 -5.83319e-18)
(27.1638 1.04891 2.96892e-18)
(27.3032 0.875234 -6.41691e-20)
(27.4067 0.680069 0)
(27.4695 0.478077 -3.86956e-18)
(27.4948 0.277359 3.83733e-18)
(27.4874 0.0853736 3.72029e-18)
(27.4531 -0.0930638 -3.74547e-18)
(27.3986 -0.255592 1.73145e-18)
(27.3282 -0.400255 -1.73191e-18)
(27.2447 -0.526783 0)
(27.1516 -0.635116 -1.43809e-18)
(27.0528 -0.725808 1.43739e-18)
(26.9509 -0.799852 1.2084e-18)
(26.8481 -0.858504 -1.71721e-18)
(26.7464 -0.903075 5.43292e-19)
(26.6471 -0.93491 6.94639e-21)
(26.5515 -0.955291 3.85437e-19)
(26.4606 -0.965503 -5.56457e-19)
(26.3751 -0.966746 1.695e-19)
(26.2958 -0.960289 6.46648e-20)
(26.2231 -0.946914 -3.62639e-20)
(26.1564 -0.93009 -3.42544e-20)
(24.7596 0.0640495 0)
(24.8143 0.266682 -4.10984e-19)
(24.8806 0.415744 -1.08568e-19)
(24.9544 0.54414 -1.5289e-18)
(25.0351 0.65903 7.32018e-19)
(25.1217 0.761875 2.03613e-18)
(25.2136 0.854331 -3.69868e-18)
(25.3098 0.937296 1.68525e-18)
(25.4132 1.01229 3.0444e-19)
(25.5263 1.07653 -1.07857e-18)
(25.6478 1.12709 3.67143e-19)
(25.7769 1.16048 4.95633e-19)
(25.9087 1.17601 -3.98011e-19)
(26.0418 1.17536 1.93774e-19)
(26.1768 1.16214 -2.17382e-18)
(26.3126 1.13721 2.8518e-18)
(26.4493 1.10295 3.17381e-18)
(26.5882 1.05372 -7.32471e-18)
(26.7254 0.981594 6.22959e-18)
(26.854 0.883161 -2.25003e-18)
(26.9674 0.758831 -2.68944e-18)
(27.057 0.617275 5.6326e-18)
(27.1182 0.468121 9.23369e-20)
(27.1524 0.316797 -2.76335e-18)
(27.1619 0.168798 5.04905e-20)
(27.1501 0.0281896 -7.99849e-20)
(27.1215 -0.102535 -2.71425e-20)
(27.0791 -0.221412 1.2873e-18)
(27.0249 -0.327765 -2.49356e-18)
(26.9615 -0.421081 1.20716e-18)
(26.8917 -0.501358 -9.3307e-21)
(26.818 -0.568978 -1.49111e-20)
(26.7423 -0.62459 7.85791e-21)
(26.6661 -0.66897 -4.00893e-19)
(26.591 -0.703006 4.03818e-19)
(26.5179 -0.72761 3.5485e-19)
(26.4479 -0.743761 -3.38411e-19)
(26.3814 -0.752418 0)
(26.3191 -0.754607 0)
(26.2612 -0.750993 1.47896e-20)
(26.2077 -0.744173 6.21857e-21)
(24.9524 0.0520849 0)
(24.9985 0.219596 1.92579e-18)
(25.0536 0.341085 2.23153e-18)
(25.1148 0.445487 -2.23307e-18)
(25.1816 0.538502 1.7462e-18)
(25.2528 0.621202 -1.74402e-18)
(25.3281 0.695075 -6.11282e-19)
(25.4066 0.76097 9.37435e-19)
(25.4904 0.820055 -3.57229e-19)
(25.5811 0.870393 0)
(25.6778 0.910015 3.30123e-20)
(25.7799 0.936495 0)
(25.8838 0.949437 6.50854e-19)
(25.9886 0.950013 -8.33206e-19)
(26.0946 0.940892 0)
(26.201 0.922738 -2.62373e-19)
(26.3077 0.897471 0)
(26.4156 0.86119 2.58143e-18)
(26.5222 0.808391 -2.91495e-18)
(26.6231 0.736638 0)
(26.7139 0.645896 0)
(26.7883 0.541918 -1.44571e-19)
(26.8429 0.431282 -2.01628e-18)
(26.878 0.317571 2.03706e-18)
(26.8949 0.204627 -2.1483e-18)
(26.8954 0.0956 2.20709e-18)
(26.8827 -0.00734434 3.65091e-20)
(26.8586 -0.102569 0)
(26.8245 -0.189276 0)
(26.7824 -0.266771 -9.03847e-19)
(26.7344 -0.334763 8.44568e-19)
(26.6825 -0.393309 1.38878e-20)
(26.6282 -0.442715 0)
(26.5727 -0.483458 3.04116e-20)
(26.5173 -0.516138 0)
(26.4629 -0.541436 -9.99502e-21)
(26.4101 -0.560091 -2.7345e-19)
(26.3594 -0.572849 1.76846e-19)
(26.3112 -0.580492 9.54613e-20)
(26.2656 -0.583523 -1.37074e-20)
(26.2229 -0.583728 -1.24251e-20)
(25.1031 0.0428806 -4.86906e-19)
(25.1421 0.182202 -2.68661e-19)
(25.1882 0.282055 -1.27738e-18)
(25.2394 0.367667 0)
(25.295 0.443588 0)
(25.3542 0.510637 0)
(25.4164 0.570146 5.65405e-19)
(25.4811 0.6229 -1.70306e-18)
(25.5498 0.669825 8.36965e-19)
(25.6234 0.709554 7.46958e-19)
(25.7013 0.740762 -1.78006e-19)
(25.7829 0.761726 3.68137e-19)
(25.8658 0.772251 -3.69389e-19)
(25.9492 0.773184 9.31734e-19)
(26.0333 0.766524 -9.46872e-19)
(26.1175 0.752784 0)
(26.2016 0.733501 1.68328e-18)
(26.2862 0.705947 -1.74267e-18)
(26.3696 0.666314 -2.46942e-18)
(26.4489 0.612896 5.18086e-18)
(26.5212 0.545559 5.59274e-19)
(26.5819 0.468196 -4.46454e-18)
(26.6284 0.385466 -1.78276e-19)
(26.6608 0.299794 3.21122e-18)
(26.6798 0.213848 -1.6102e-18)
(26.6865 0.129962 0)
(26.6829 0.049869 9.20279e-20)
(26.6704 -0.0251589 0)
(26.6499 -0.0943897 -8.75795e-20)
(26.6228 -0.157161 0)
(26.5907 -0.213113 4.74259e-20)
(26.555 -0.262183 7.73278e-20)
(26.5168 -0.304511 6.11594e-19)
(26.4772 -0.340406 -6.45203e-19)
(26.437 -0.370272 0)
(26.3969 -0.394598 0)
(26.3574 -0.413904 -2.90847e-20)
(26.319 -0.428719 8.11313e-20)
(26.2818 -0.439587 -1.85334e-19)
(26.2461 -0.446839 1.02046e-19)
(26.212 -0.451592 3.35465e-20)
(25.2222 0.0356926 -3.10583e-19)
(25.2554 0.152137 7.32145e-19)
(25.2942 0.234803 -1.0784e-18)
(25.3372 0.305532 1.62946e-19)
(25.3839 0.367951 0)
(25.4334 0.422725 7.96626e-19)
(25.4853 0.470997 -1.60441e-18)
(25.5391 0.513529 7.21891e-20)
(25.5958 0.55103 3.67477e-19)
(25.6561 0.58259 -7.27656e-19)
(25.7195 0.607269 0)
(25.7854 0.623887 -9.69222e-20)
(25.8522 0.632325 0)
(25.9192 0.633261 0)
(25.9866 0.628171 0)
(26.0537 0.617492 0)
(26.1206 0.602405 1.62093e-18)
(26.1875 0.581017 -1.4402e-18)
(26.2533 0.550666 0)
(26.3159 0.5102 0)
(26.3734 0.4595 1.67404e-18)
(26.4226 0.401278 -2.20066e-18)
(26.4613 0.33888 2.29173e-18)
(26.4897 0.274004 -2.40366e-18)
(26.5082 0.208525 0)
(26.5176 0.144144 1.104e-18)
(26.5191 0.0821755 -2.631e-18)
(26.5138 0.0235527 1.22243e-18)
(26.5021 -0.0311453 1.30761e-20)
(26.4852 -0.0813721 0)
(26.4641 -0.12681 -6.44385e-20)
(26.4398 -0.167351 -1.01661e-20)
(26.4132 -0.203054 0)
(26.385 -0.234088 -5.65954e-20)
(26.3558 -0.26071 0)
(26.3263 -0.283229 0)
(26.2968 -0.301979 2.70848e-20)
(26.2676 -0.317303 -4.56511e-20)
(26.239 -0.329539 8.83896e-20)
(26.2112 -0.338917 -5.68803e-21)
(26.1843 -0.346053 -6.10593e-20)
(25.3174 0.0299677 0)
(25.3457 0.127674 0)
(25.3785 0.19654 9.95281e-19)
(25.4149 0.255354 5.89228e-20)
(25.4543 0.307021 0)
(25.4959 0.352065 7.30186e-19)
(25.5395 0.391487 4.51628e-19)
(25.5845 0.425975 -1.08122e-18)
(25.6317 0.456111 1.61984e-19)
(25.6816 0.481288 -3.53502e-19)
(25.7336 0.500867 1.42697e-20)
(25.7874 0.514033 9.05131e-20)
(25.8417 0.520733 0)
(25.896 0.521506 -2.35273e-19)
(25.9503 0.517466 0)
(26.0044 0.50898 0)
(26.0579 0.496953 -1.35203e-18)
(26.1113 0.48006 1.11617e-18)
(26.1635 0.456427 0)
(26.2133 0.425289 0)
(26.2592 0.386579 -1.65544e-18)
(26.2988 0.342269 3.47525e-18)
(26.3307 0.29476 -3.50818e-18)
(26.3551 0.24526 1.73457e-18)
(26.3719 0.195099 0)
(26.3819 0.14551 2.44024e-19)
(26.386 0.0974711 1.77115e-19)
(26.3848 0.0516404 0)
(26.3786 0.00845307 -8.61059e-19)
(26.3682 -0.0316611 1.02063e-18)
(26.3544 -0.0684348 1.61934e-19)
(26.3378 -0.101743 -5.7786e-20)
(26.3192 -0.131581 -4.73121e-20)
(26.299 -0.158024 5.27722e-20)
(26.2779 -0.18121 0)
(26.2561 -0.201318 4.13408e-20)
(26.234 -0.218548 0)
(26.212 -0.233116 2.35583e-19)
(26.1902 -0.245236 -1.54218e-19)
(26.1688 -0.25507 -3.02925e-21)
(26.1478 -0.262944 -3.39387e-20)
(25.394 0.0253213 3.93186e-19)
(25.4183 0.107572 1.76935e-19)
(25.4462 0.165242 -9.39755e-19)
(25.4771 0.214406 2.53227e-18)
(25.5105 0.25742 -1.19847e-18)
(25.5458 0.294691 4.31939e-19)
(25.5826 0.327087 4.42351e-19)
(25.6205 0.355205 3.41215e-19)
(25.66 0.37954 2.26331e-19)
(25.7015 0.399687 -1.08917e-20)
(25.7446 0.415239 -9.83424e-20)
(25.7888 0.425626 7.80289e-20)
(25.8333 0.430863 -1.35033e-19)
(25.8776 0.431367 1.35331e-18)
(25.9219 0.428003 -9.54747e-19)
(25.9657 0.421065 1.46975e-18)
(26.0089 0.411265 -1.27435e-18)
(26.0517 0.397652 0)
(26.0935 0.378903 1.21925e-19)
(26.1333 0.354505 -1.21795e-18)
(26.17 0.324442 1.23659e-18)
(26.202 0.290224 -1.07261e-18)
(26.2281 0.253582 2.64214e-18)
(26.2486 0.215375 -1.32101e-18)
(26.2634 0.176555 0)
(26.2729 0.138026 -1.03168e-19)
(26.2779 0.100518 -1.03179e-19)
(26.2788 0.0644977 0)
(26.2758 0.0302993 -7.23812e-19)
(26.2695 -0.00174598 7.00704e-19)
(26.2604 -0.0314085 -9.49748e-20)
(26.249 -0.0585696 0)
(26.2359 -0.0831876 4.41271e-20)